
Host: 6675795ce8b0

Timers On : Wed Oct 16 05:52:41 2024
Timers Off: Wed Oct 16 05:52:42 2024

Wall Time:        1.01 seconds

                                                       Time (seconds)
Module                                       User      System        Wall        Calls

--------------------------------------------------------------------------------------

**************************************************************************************

Host: 0ede9893d6f9

Timers On : Wed Oct 16 05:54:43 2024
Timers Off: Wed Oct 16 05:54:43 2024

Wall Time:        0.41 seconds

                                                       Time (seconds)
Module                                       User      System        Wall        Calls

--------------------------------------------------------------------------------------

**************************************************************************************
