
Host: 351bc9bc3f0e

Timers On : Tue Nov 26 22:48:49 2024
Timers Off: Tue Nov 26 22:48:50 2024

Wall Time:        1.17 seconds

                                                       Time (seconds)
Module                                       User      System        Wall        Calls
Total PK formation time             :      0.033u      0.033s      0.035w      1 calls
Libint2ERI::Libint2ERI              :      0.017u      0.050s      0.031w      3 calls
HF: Form core H                     :      0.000u      0.000s      0.005w      1 calls
HF: Form S/X                        :      0.000u      0.000s      0.000w      1 calls
HF: Guess                           :      0.017u      0.017s      0.025w      1 calls
SAD Guess                           :      0.017u      0.017s      0.025w      1 calls
HF: Form G                          :      0.017u      0.000s      0.001w     15 calls
JK: D                               :      0.000u      0.000s      0.000w     15 calls
JK: USO2AO                          :      0.000u      0.000s      0.000w     15 calls
JK: JK                              :      0.017u      0.000s      0.001w     15 calls
PK computes JK                      :      0.017u      0.000s      0.001w     15 calls
JK: AO2USO                          :      0.000u      0.000s      0.000w     15 calls
HF: Form F                          :      0.000u      0.000s      0.000w     15 calls
HF: Form D                          :      0.000u      0.000s      0.000w     15 calls
HF: DIIS                            :      1.467u      0.050s      0.309w     14 calls
HF: Form C                          :      0.000u      0.000s      0.003w     14 calls

--------------------------------------------------------------------------------------
Total PK formation time             :      0.033u      0.033s      0.035w      1 calls
| Libint2ERI::Libint2ERI            :      0.000u      0.033s      0.025w      2 calls
HF: Form core H                     :      0.000u      0.000s      0.005w      1 calls
HF: Form S/X                        :      0.000u      0.000s      0.000w      1 calls
HF: Guess                           :      0.017u      0.017s      0.025w      1 calls
| SAD Guess                         :      0.017u      0.017s      0.025w      1 calls
HF: Form G                          :      0.017u      0.000s      0.001w     15 calls
| JK: D                             :      0.000u      0.000s      0.000w     15 calls
| JK: USO2AO                        :      0.000u      0.000s      0.000w     15 calls
| JK: JK                            :      0.017u      0.000s      0.001w     15 calls
| | PK computes JK                  :      0.017u      0.000s      0.001w     15 calls
| JK: AO2USO                        :      0.000u      0.000s      0.000w     15 calls
HF: Form F                          :      0.000u      0.000s      0.000w     15 calls
HF: Form D                          :      0.000u      0.000s      0.000w     15 calls
HF: DIIS                            :      1.467u      0.050s      0.309w     14 calls
HF: Form C                          :      0.000u      0.000s      0.003w     14 calls
Libint2ERI::Libint2ERI              :      0.017u      0.017s      0.006w      1 calls

**************************************************************************************

Host: 351bc9bc3f0e

Timers On : Tue Nov 26 22:49:37 2024
Timers Off: Tue Nov 26 22:49:37 2024

Wall Time:        0.79 seconds

                                                       Time (seconds)
Module                                       User      System        Wall        Calls
Total PK formation time             :      0.017u      0.017s      0.031w      1 calls
Libint2ERI::Libint2ERI              :      0.000u      0.033s      0.025w      3 calls
HF: Form core H                     :      0.000u      0.000s      0.003w      1 calls
HF: Form S/X                        :      0.000u      0.000s      0.000w      1 calls
HF: Guess                           :      0.017u      0.000s      0.017w      1 calls
SAD Guess                           :      0.017u      0.000s      0.017w      1 calls
HF: Form G                          :      0.000u      0.000s      0.001w     15 calls
JK: D                               :      0.000u      0.000s      0.000w     15 calls
JK: USO2AO                          :      0.000u      0.000s      0.000w     15 calls
JK: JK                              :      0.000u      0.000s      0.001w     15 calls
PK computes JK                      :      0.000u      0.000s      0.001w     15 calls
JK: AO2USO                          :      0.000u      0.000s      0.000w     15 calls
HF: Form F                          :      0.000u      0.000s      0.000w     15 calls
HF: Form D                          :      0.000u      0.000s      0.000w     15 calls
HF: DIIS                            :      1.467u      0.017s      0.116w     14 calls
HF: Form C                          :      0.000u      0.000s      0.003w     14 calls

--------------------------------------------------------------------------------------
Total PK formation time             :      0.017u      0.017s      0.031w      1 calls
| Libint2ERI::Libint2ERI            :      0.000u      0.017s      0.021w      2 calls
HF: Form core H                     :      0.000u      0.000s      0.003w      1 calls
HF: Form S/X                        :      0.000u      0.000s      0.000w      1 calls
HF: Guess                           :      0.017u      0.000s      0.017w      1 calls
| SAD Guess                         :      0.017u      0.000s      0.017w      1 calls
HF: Form G                          :      0.000u      0.000s      0.001w     15 calls
| JK: D                             :      0.000u      0.000s      0.000w     15 calls
| JK: USO2AO                        :      0.000u      0.000s      0.000w     15 calls
| JK: JK                            :      0.000u      0.000s      0.001w     15 calls
| | PK computes JK                  :      0.000u      0.000s      0.001w     15 calls
| JK: AO2USO                        :      0.000u      0.000s      0.000w     15 calls
HF: Form F                          :      0.000u      0.000s      0.000w     15 calls
HF: Form D                          :      0.000u      0.000s      0.000w     15 calls
HF: DIIS                            :      1.467u      0.017s      0.116w     14 calls
HF: Form C                          :      0.000u      0.000s      0.003w     14 calls
Libint2ERI::Libint2ERI              :      0.000u      0.017s      0.004w      1 calls

**************************************************************************************

Host: 351bc9bc3f0e

Timers On : Tue Nov 26 22:50:55 2024
Timers Off: Tue Nov 26 22:50:56 2024

Wall Time:        0.77 seconds

                                                       Time (seconds)
Module                                       User      System        Wall        Calls
Total PK formation time             :      0.017u      0.000s      0.024w      1 calls
Libint2ERI::Libint2ERI              :      0.000u      0.000s      0.018w      3 calls
HF: Form core H                     :      0.000u      0.000s      0.002w      1 calls
HF: Form S/X                        :      0.000u      0.000s      0.000w      1 calls
HF: Guess                           :      0.017u      0.000s      0.016w      1 calls
SAD Guess                           :      0.017u      0.000s      0.016w      1 calls
HF: Form G                          :      0.000u      0.000s      0.001w     15 calls
JK: D                               :      0.000u      0.000s      0.000w     15 calls
JK: USO2AO                          :      0.000u      0.000s      0.000w     15 calls
JK: JK                              :      0.000u      0.000s      0.001w     15 calls
PK computes JK                      :      0.000u      0.000s      0.001w     15 calls
JK: AO2USO                          :      0.000u      0.000s      0.000w     15 calls
HF: Form F                          :      0.000u      0.000s      0.000w     15 calls
HF: Form D                          :      0.000u      0.000s      0.000w     15 calls
HF: DIIS                            :      1.433u      0.017s      0.108w     14 calls
HF: Form C                          :      0.000u      0.000s      0.003w     14 calls

--------------------------------------------------------------------------------------
Total PK formation time             :      0.017u      0.000s      0.024w      1 calls
| Libint2ERI::Libint2ERI            :      0.000u      0.000s      0.015w      2 calls
HF: Form core H                     :      0.000u      0.000s      0.002w      1 calls
HF: Form S/X                        :      0.000u      0.000s      0.000w      1 calls
HF: Guess                           :      0.017u      0.000s      0.016w      1 calls
| SAD Guess                         :      0.017u      0.000s      0.016w      1 calls
HF: Form G                          :      0.000u      0.000s      0.001w     15 calls
| JK: D                             :      0.000u      0.000s      0.000w     15 calls
| JK: USO2AO                        :      0.000u      0.000s      0.000w     15 calls
| JK: JK                            :      0.000u      0.000s      0.001w     15 calls
| | PK computes JK                  :      0.000u      0.000s      0.001w     15 calls
| JK: AO2USO                        :      0.000u      0.000s      0.000w     15 calls
HF: Form F                          :      0.000u      0.000s      0.000w     15 calls
HF: Form D                          :      0.000u      0.000s      0.000w     15 calls
HF: DIIS                            :      1.433u      0.017s      0.108w     14 calls
HF: Form C                          :      0.000u      0.000s      0.003w     14 calls
Libint2ERI::Libint2ERI              :      0.000u      0.000s      0.003w      1 calls

**************************************************************************************

Host: 351bc9bc3f0e

Timers On : Tue Nov 26 22:51:32 2024
Timers Off: Tue Nov 26 22:51:33 2024

Wall Time:        0.77 seconds

                                                       Time (seconds)
Module                                       User      System        Wall        Calls
Total PK formation time             :      0.017u      0.017s      0.028w      1 calls
Libint2ERI::Libint2ERI              :      0.000u      0.017s      0.023w      3 calls
HF: Form core H                     :      0.000u      0.000s      0.003w      1 calls
HF: Form S/X                        :      0.000u      0.000s      0.000w      1 calls
HF: Guess                           :      0.017u      0.000s      0.017w      1 calls
SAD Guess                           :      0.017u      0.000s      0.016w      1 calls
HF: Form G                          :      0.000u      0.000s      0.001w     15 calls
JK: D                               :      0.000u      0.000s      0.000w     15 calls
JK: USO2AO                          :      0.000u      0.000s      0.000w     15 calls
JK: JK                              :      0.000u      0.000s      0.001w     15 calls
PK computes JK                      :      0.000u      0.000s      0.001w     15 calls
JK: AO2USO                          :      0.000u      0.000s      0.000w     15 calls
HF: Form F                          :      0.000u      0.000s      0.000w     15 calls
HF: Form D                          :      0.000u      0.000s      0.000w     15 calls
HF: DIIS                            :      1.433u      0.033s      0.108w     14 calls
HF: Form C                          :      0.000u      0.000s      0.003w     14 calls

--------------------------------------------------------------------------------------
Total PK formation time             :      0.017u      0.017s      0.028w      1 calls
| Libint2ERI::Libint2ERI            :      0.000u      0.017s      0.018w      2 calls
HF: Form core H                     :      0.000u      0.000s      0.003w      1 calls
HF: Form S/X                        :      0.000u      0.000s      0.000w      1 calls
HF: Guess                           :      0.017u      0.000s      0.017w      1 calls
| SAD Guess                         :      0.017u      0.000s      0.016w      1 calls
HF: Form G                          :      0.000u      0.000s      0.001w     15 calls
| JK: D                             :      0.000u      0.000s      0.000w     15 calls
| JK: USO2AO                        :      0.000u      0.000s      0.000w     15 calls
| JK: JK                            :      0.000u      0.000s      0.001w     15 calls
| | PK computes JK                  :      0.000u      0.000s      0.001w     15 calls
| JK: AO2USO                        :      0.000u      0.000s      0.000w     15 calls
HF: Form F                          :      0.000u      0.000s      0.000w     15 calls
HF: Form D                          :      0.000u      0.000s      0.000w     15 calls
HF: DIIS                            :      1.433u      0.033s      0.108w     14 calls
HF: Form C                          :      0.000u      0.000s      0.003w     14 calls
Libint2ERI::Libint2ERI              :      0.000u      0.000s      0.005w      1 calls

**************************************************************************************

Host: 351bc9bc3f0e

Timers On : Tue Nov 26 22:52:36 2024
Timers Off: Tue Nov 26 22:52:37 2024

Wall Time:        0.80 seconds

                                                       Time (seconds)
Module                                       User      System        Wall        Calls
Total PK formation time             :      0.017u      0.017s      0.035w      1 calls
Libint2ERI::Libint2ERI              :      0.000u      0.017s      0.027w      3 calls
HF: Form core H                     :      0.000u      0.000s      0.003w      1 calls
HF: Form S/X                        :      0.000u      0.000s      0.000w      1 calls
HF: Guess                           :      0.017u      0.000s      0.017w      1 calls
SAD Guess                           :      0.017u      0.000s      0.017w      1 calls
HF: Form G                          :      0.000u      0.000s      0.001w     15 calls
JK: D                               :      0.000u      0.000s      0.000w     15 calls
JK: USO2AO                          :      0.000u      0.000s      0.000w     15 calls
JK: JK                              :      0.000u      0.000s      0.001w     15 calls
PK computes JK                      :      0.000u      0.000s      0.001w     15 calls
JK: AO2USO                          :      0.000u      0.000s      0.000w     15 calls
HF: Form F                          :      0.000u      0.000s      0.000w     15 calls
HF: Form D                          :      0.000u      0.000s      0.000w     15 calls
HF: DIIS                            :      1.500u      0.017s      0.118w     14 calls
HF: Form C                          :      0.000u      0.000s      0.003w     14 calls

--------------------------------------------------------------------------------------
Total PK formation time             :      0.017u      0.017s      0.035w      1 calls
| Libint2ERI::Libint2ERI            :      0.000u      0.017s      0.024w      2 calls
HF: Form core H                     :      0.000u      0.000s      0.003w      1 calls
HF: Form S/X                        :      0.000u      0.000s      0.000w      1 calls
HF: Guess                           :      0.017u      0.000s      0.017w      1 calls
| SAD Guess                         :      0.017u      0.000s      0.017w      1 calls
HF: Form G                          :      0.000u      0.000s      0.001w     15 calls
| JK: D                             :      0.000u      0.000s      0.000w     15 calls
| JK: USO2AO                        :      0.000u      0.000s      0.000w     15 calls
| JK: JK                            :      0.000u      0.000s      0.001w     15 calls
| | PK computes JK                  :      0.000u      0.000s      0.001w     15 calls
| JK: AO2USO                        :      0.000u      0.000s      0.000w     15 calls
HF: Form F                          :      0.000u      0.000s      0.000w     15 calls
HF: Form D                          :      0.000u      0.000s      0.000w     15 calls
HF: DIIS                            :      1.500u      0.017s      0.118w     14 calls
HF: Form C                          :      0.000u      0.000s      0.003w     14 calls
Libint2ERI::Libint2ERI              :      0.000u      0.000s      0.003w      1 calls

**************************************************************************************

Host: 351bc9bc3f0e

Timers On : Tue Nov 26 22:53:15 2024
Timers Off: Tue Nov 26 22:53:16 2024

Wall Time:        0.76 seconds

                                                       Time (seconds)
Module                                       User      System        Wall        Calls
Total PK formation time             :      0.017u      0.017s      0.024w      1 calls
Libint2ERI::Libint2ERI              :      0.000u      0.017s      0.017w      3 calls
HF: Form core H                     :      0.000u      0.000s      0.003w      1 calls
HF: Form S/X                        :      0.000u      0.000s      0.000w      1 calls
HF: Guess                           :      0.017u      0.000s      0.016w      1 calls
SAD Guess                           :      0.017u      0.000s      0.016w      1 calls
HF: Form G                          :      0.017u      0.000s      0.001w     15 calls
JK: D                               :      0.000u      0.000s      0.000w     15 calls
JK: USO2AO                          :      0.000u      0.000s      0.000w     15 calls
JK: JK                              :      0.017u      0.000s      0.001w     15 calls
PK computes JK                      :      0.000u      0.000s      0.001w     15 calls
JK: AO2USO                          :      0.000u      0.000s      0.000w     15 calls
HF: Form F                          :      0.000u      0.000s      0.000w     15 calls
HF: Form D                          :      0.000u      0.000s      0.000w     15 calls
HF: DIIS                            :      1.383u      0.017s      0.105w     14 calls
HF: Form C                          :      0.000u      0.000s      0.003w     14 calls

--------------------------------------------------------------------------------------
Total PK formation time             :      0.017u      0.017s      0.024w      1 calls
| Libint2ERI::Libint2ERI            :      0.000u      0.017s      0.014w      2 calls
HF: Form core H                     :      0.000u      0.000s      0.003w      1 calls
HF: Form S/X                        :      0.000u      0.000s      0.000w      1 calls
HF: Guess                           :      0.017u      0.000s      0.016w      1 calls
| SAD Guess                         :      0.017u      0.000s      0.016w      1 calls
HF: Form G                          :      0.017u      0.000s      0.001w     15 calls
| JK: D                             :      0.000u      0.000s      0.000w     15 calls
| JK: USO2AO                        :      0.000u      0.000s      0.000w     15 calls
| JK: JK                            :      0.017u      0.000s      0.001w     15 calls
| | PK computes JK                  :      0.000u      0.000s      0.001w     15 calls
| JK: AO2USO                        :      0.000u      0.000s      0.000w     15 calls
HF: Form F                          :      0.000u      0.000s      0.000w     15 calls
HF: Form D                          :      0.000u      0.000s      0.000w     15 calls
HF: DIIS                            :      1.383u      0.017s      0.105w     14 calls
HF: Form C                          :      0.000u      0.000s      0.003w     14 calls
Libint2ERI::Libint2ERI              :      0.000u      0.000s      0.002w      1 calls

**************************************************************************************

Host: CHEMWR1W4NCALT

Timers On : Tue Nov 26 19:55:13 2024
Timers Off: Tue Nov 26 19:55:14 2024

Wall Time:        1.10 seconds

                                                       Time (seconds)
Module                                       User      System        Wall        Calls
DFH: sparsity prep                  :      0.000u      0.000s      0.010w      5 calls
Libint2ERI::Libint2ERI              :      0.000u      0.000s      0.010w     15 calls
DFH: initialize()                   :      0.083u      0.000s      0.052w      5 calls
DFH: AO Construction                :      0.017u      0.000s      0.007w      5 calls
DFH: AO-Met. Contraction            :      0.000u      0.000s      0.001w      5 calls
HF: Form core H                     :      0.000u      0.000s      0.004w      5 calls
HF: Form S/X                        :      0.000u      0.000s      0.000w      5 calls
HF: Guess                           :      0.067u      0.017s      0.054w      5 calls
SAD Guess                           :      0.067u      0.017s      0.052w      5 calls
HF: Form G                          :      0.017u      0.017s      0.005w     45 calls
JK: D                               :      0.000u      0.000s      0.000w     45 calls
JK: USO2AO                          :      0.000u      0.000s      0.000w     45 calls
JK: JK                              :      0.017u      0.000s      0.004w     45 calls
DFH: compute_JK()                   :      0.017u      0.000s      0.004w     45 calls
DFH: Grabbing AOs                   :      0.000u      0.000s      0.000w     45 calls
DFH: compute_J                      :      0.000u      0.000s      0.001w     45 calls
DFH: compute_K                      :      0.017u      0.000s      0.003w     45 calls
JK: AO2USO                          :      0.000u      0.000s      0.000w     45 calls
HF: Form F                          :      0.000u      0.000s      0.000w     45 calls
HF: Form D                          :      0.000u      0.000s      0.000w     45 calls
HF: DIIS                            :      0.183u      0.067s      0.255w     40 calls
HF: Form C                          :      0.017u      0.000s      0.005w     40 calls

--------------------------------------------------------------------------------------
DFH: sparsity prep                  :      0.000u      0.000s      0.010w      5 calls
| Libint2ERI::Libint2ERI            :      0.000u      0.000s      0.007w      5 calls
DFH: initialize()                   :      0.083u      0.000s      0.052w      5 calls
| Libint2ERI::Libint2ERI            :      0.000u      0.000s      0.002w     10 calls
| DFH: AO Construction              :      0.017u      0.000s      0.007w      5 calls
| DFH: AO-Met. Contraction          :      0.000u      0.000s      0.001w      5 calls
HF: Form core H                     :      0.000u      0.000s      0.004w      5 calls
HF: Form S/X                        :      0.000u      0.000s      0.000w      5 calls
HF: Guess                           :      0.067u      0.017s      0.054w      5 calls
| SAD Guess                         :      0.067u      0.017s      0.052w      5 calls
HF: Form G                          :      0.017u      0.017s      0.005w     45 calls
| JK: D                             :      0.000u      0.000s      0.000w     45 calls
| JK: USO2AO                        :      0.000u      0.000s      0.000w     45 calls
| JK: JK                            :      0.017u      0.000s      0.004w     45 calls
| | DFH: compute_JK()               :      0.017u      0.000s      0.004w     45 calls
| | | DFH: Grabbing AOs             :      0.000u      0.000s      0.000w     45 calls
| | | DFH: compute_J                :      0.000u      0.000s      0.001w     45 calls
| | | DFH: compute_K                :      0.017u      0.000s      0.003w     45 calls
| JK: AO2USO                        :      0.000u      0.000s      0.000w     45 calls
HF: Form F                          :      0.000u      0.000s      0.000w     45 calls
HF: Form D                          :      0.000u      0.000s      0.000w     45 calls
HF: DIIS                            :      0.183u      0.067s      0.255w     40 calls
HF: Form C                          :      0.017u      0.000s      0.005w     40 calls

**************************************************************************************

Host: CHEMWR1W4NCALT

Timers On : Tue Nov 26 20:14:12 2024
Timers Off: Tue Nov 26 20:14:13 2024

Wall Time:        1.07 seconds

                                                       Time (seconds)
Module                                       User      System        Wall        Calls
DFH: sparsity prep                  :      0.000u      0.000s      0.010w      5 calls
Libint2ERI::Libint2ERI              :      0.000u      0.000s      0.009w     15 calls
DFH: initialize()                   :      0.067u      0.000s      0.054w      5 calls
DFH: AO Construction                :      0.000u      0.000s      0.007w      5 calls
DFH: AO-Met. Contraction            :      0.000u      0.000s      0.001w      5 calls
HF: Form core H                     :      0.017u      0.017s      0.005w      5 calls
HF: Form S/X                        :      0.000u      0.000s      0.001w      5 calls
HF: Guess                           :      0.067u      0.017s      0.054w      5 calls
SAD Guess                           :      0.067u      0.017s      0.051w      5 calls
HF: Form G                          :      0.000u      0.000s      0.005w     45 calls
JK: D                               :      0.000u      0.000s      0.000w     45 calls
JK: USO2AO                          :      0.000u      0.000s      0.000w     45 calls
JK: JK                              :      0.000u      0.000s      0.004w     45 calls
DFH: compute_JK()                   :      0.000u      0.000s      0.004w     45 calls
DFH: Grabbing AOs                   :      0.000u      0.000s      0.000w     45 calls
DFH: compute_J                      :      0.000u      0.000s      0.001w     45 calls
DFH: compute_K                      :      0.000u      0.000s      0.003w     45 calls
JK: AO2USO                          :      0.000u      0.000s      0.000w     45 calls
HF: Form F                          :      0.000u      0.000s      0.000w     45 calls
HF: Form D                          :      0.000u      0.000s      0.000w     45 calls
HF: DIIS                            :      0.167u      0.083s      0.246w     40 calls
HF: Form C                          :      0.000u      0.000s      0.005w     40 calls

--------------------------------------------------------------------------------------
DFH: sparsity prep                  :      0.000u      0.000s      0.010w      5 calls
| Libint2ERI::Libint2ERI            :      0.000u      0.000s      0.007w      5 calls
DFH: initialize()                   :      0.067u      0.000s      0.054w      5 calls
| Libint2ERI::Libint2ERI            :      0.000u      0.000s      0.002w     10 calls
| DFH: AO Construction              :      0.000u      0.000s      0.007w      5 calls
| DFH: AO-Met. Contraction          :      0.000u      0.000s      0.001w      5 calls
HF: Form core H                     :      0.017u      0.017s      0.005w      5 calls
HF: Form S/X                        :      0.000u      0.000s      0.001w      5 calls
HF: Guess                           :      0.067u      0.017s      0.054w      5 calls
| SAD Guess                         :      0.067u      0.017s      0.051w      5 calls
HF: Form G                          :      0.000u      0.000s      0.005w     45 calls
| JK: D                             :      0.000u      0.000s      0.000w     45 calls
| JK: USO2AO                        :      0.000u      0.000s      0.000w     45 calls
| JK: JK                            :      0.000u      0.000s      0.004w     45 calls
| | DFH: compute_JK()               :      0.000u      0.000s      0.004w     45 calls
| | | DFH: Grabbing AOs             :      0.000u      0.000s      0.000w     45 calls
| | | DFH: compute_J                :      0.000u      0.000s      0.001w     45 calls
| | | DFH: compute_K                :      0.000u      0.000s      0.003w     45 calls
| JK: AO2USO                        :      0.000u      0.000s      0.000w     45 calls
HF: Form F                          :      0.000u      0.000s      0.000w     45 calls
HF: Form D                          :      0.000u      0.000s      0.000w     45 calls
HF: DIIS                            :      0.167u      0.083s      0.246w     40 calls
HF: Form C                          :      0.000u      0.000s      0.005w     40 calls

**************************************************************************************

Host: CHEMWR1W4NCALT

Timers On : Tue Nov 26 20:22:34 2024
Timers Off: Tue Nov 26 20:22:35 2024

Wall Time:        1.08 seconds

                                                       Time (seconds)
Module                                       User      System        Wall        Calls
DFH: sparsity prep                  :      0.017u      0.000s      0.011w      5 calls
Libint2ERI::Libint2ERI              :      0.000u      0.000s      0.010w     15 calls
DFH: initialize()                   :      0.067u      0.000s      0.057w      5 calls
DFH: AO Construction                :      0.000u      0.000s      0.008w      5 calls
DFH: AO-Met. Contraction            :      0.000u      0.000s      0.001w      5 calls
HF: Form core H                     :      0.000u      0.000s      0.006w      5 calls
HF: Form S/X                        :      0.000u      0.000s      0.001w      5 calls
HF: Guess                           :      0.083u      0.033s      0.052w      5 calls
SAD Guess                           :      0.067u      0.033s      0.049w      5 calls
HF: Form G                          :      0.017u      0.000s      0.005w     45 calls
JK: D                               :      0.000u      0.000s      0.000w     45 calls
JK: USO2AO                          :      0.000u      0.000s      0.000w     45 calls
JK: JK                              :      0.017u      0.000s      0.004w     45 calls
DFH: compute_JK()                   :      0.017u      0.000s      0.004w     45 calls
DFH: Grabbing AOs                   :      0.000u      0.000s      0.000w     45 calls
DFH: compute_J                      :      0.000u      0.000s      0.001w     45 calls
DFH: compute_K                      :      0.000u      0.000s      0.003w     45 calls
JK: AO2USO                          :      0.000u      0.000s      0.000w     45 calls
HF: Form F                          :      0.000u      0.000s      0.000w     45 calls
HF: Form D                          :      0.000u      0.000s      0.000w     45 calls
HF: DIIS                            :      0.167u      0.067s      0.241w     40 calls
HF: Form C                          :      0.000u      0.000s      0.005w     40 calls

--------------------------------------------------------------------------------------
DFH: sparsity prep                  :      0.017u      0.000s      0.011w      5 calls
| Libint2ERI::Libint2ERI            :      0.000u      0.000s      0.008w      5 calls
DFH: initialize()                   :      0.067u      0.000s      0.057w      5 calls
| Libint2ERI::Libint2ERI            :      0.000u      0.000s      0.002w     10 calls
| DFH: AO Construction              :      0.000u      0.000s      0.008w      5 calls
| DFH: AO-Met. Contraction          :      0.000u      0.000s      0.001w      5 calls
HF: Form core H                     :      0.000u      0.000s      0.006w      5 calls
HF: Form S/X                        :      0.000u      0.000s      0.001w      5 calls
HF: Guess                           :      0.083u      0.033s      0.052w      5 calls
| SAD Guess                         :      0.067u      0.033s      0.049w      5 calls
HF: Form G                          :      0.017u      0.000s      0.005w     45 calls
| JK: D                             :      0.000u      0.000s      0.000w     45 calls
| JK: USO2AO                        :      0.000u      0.000s      0.000w     45 calls
| JK: JK                            :      0.017u      0.000s      0.004w     45 calls
| | DFH: compute_JK()               :      0.017u      0.000s      0.004w     45 calls
| | | DFH: Grabbing AOs             :      0.000u      0.000s      0.000w     45 calls
| | | DFH: compute_J                :      0.000u      0.000s      0.001w     45 calls
| | | DFH: compute_K                :      0.000u      0.000s      0.003w     45 calls
| JK: AO2USO                        :      0.000u      0.000s      0.000w     45 calls
HF: Form F                          :      0.000u      0.000s      0.000w     45 calls
HF: Form D                          :      0.000u      0.000s      0.000w     45 calls
HF: DIIS                            :      0.167u      0.067s      0.241w     40 calls
HF: Form C                          :      0.000u      0.000s      0.005w     40 calls

**************************************************************************************

Host: CHEMWR1W4NCALT

Timers On : Tue Nov 26 20:26:25 2024
Timers Off: Tue Nov 26 20:26:26 2024

Wall Time:        1.04 seconds

                                                       Time (seconds)
Module                                       User      System        Wall        Calls
DFH: sparsity prep                  :      0.017u      0.017s      0.010w      5 calls
Libint2ERI::Libint2ERI              :      0.017u      0.017s      0.009w     15 calls
DFH: initialize()                   :      0.033u      0.000s      0.052w      5 calls
DFH: AO Construction                :      0.000u      0.000s      0.007w      5 calls
DFH: AO-Met. Contraction            :      0.000u      0.000s      0.001w      5 calls
HF: Form core H                     :      0.000u      0.000s      0.003w      5 calls
HF: Form S/X                        :      0.000u      0.000s      0.001w      5 calls
HF: Guess                           :      0.050u      0.017s      0.053w      5 calls
SAD Guess                           :      0.050u      0.017s      0.050w      5 calls
HF: Form G                          :      0.000u      0.000s      0.005w     45 calls
JK: D                               :      0.000u      0.000s      0.000w     45 calls
JK: USO2AO                          :      0.000u      0.000s      0.000w     45 calls
JK: JK                              :      0.000u      0.000s      0.005w     45 calls
DFH: compute_JK()                   :      0.000u      0.000s      0.005w     45 calls
DFH: Grabbing AOs                   :      0.000u      0.000s      0.000w     45 calls
DFH: compute_J                      :      0.000u      0.000s      0.001w     45 calls
DFH: compute_K                      :      0.000u      0.000s      0.003w     45 calls
JK: AO2USO                          :      0.000u      0.000s      0.000w     45 calls
HF: Form F                          :      0.000u      0.000s      0.000w     45 calls
HF: Form D                          :      0.000u      0.000s      0.000w     45 calls
HF: DIIS                            :      0.167u      0.067s      0.230w     40 calls
HF: Form C                          :      0.033u      0.000s      0.005w     40 calls

--------------------------------------------------------------------------------------
DFH: sparsity prep                  :      0.017u      0.017s      0.010w      5 calls
| Libint2ERI::Libint2ERI            :      0.017u      0.017s      0.007w      5 calls
DFH: initialize()                   :      0.033u      0.000s      0.052w      5 calls
| Libint2ERI::Libint2ERI            :      0.000u      0.000s      0.002w     10 calls
| DFH: AO Construction              :      0.000u      0.000s      0.007w      5 calls
| DFH: AO-Met. Contraction          :      0.000u      0.000s      0.001w      5 calls
HF: Form core H                     :      0.000u      0.000s      0.003w      5 calls
HF: Form S/X                        :      0.000u      0.000s      0.001w      5 calls
HF: Guess                           :      0.050u      0.017s      0.053w      5 calls
| SAD Guess                         :      0.050u      0.017s      0.050w      5 calls
HF: Form G                          :      0.000u      0.000s      0.005w     45 calls
| JK: D                             :      0.000u      0.000s      0.000w     45 calls
| JK: USO2AO                        :      0.000u      0.000s      0.000w     45 calls
| JK: JK                            :      0.000u      0.000s      0.005w     45 calls
| | DFH: compute_JK()               :      0.000u      0.000s      0.005w     45 calls
| | | DFH: Grabbing AOs             :      0.000u      0.000s      0.000w     45 calls
| | | DFH: compute_J                :      0.000u      0.000s      0.001w     45 calls
| | | DFH: compute_K                :      0.000u      0.000s      0.003w     45 calls
| JK: AO2USO                        :      0.000u      0.000s      0.000w     45 calls
HF: Form F                          :      0.000u      0.000s      0.000w     45 calls
HF: Form D                          :      0.000u      0.000s      0.000w     45 calls
HF: DIIS                            :      0.167u      0.067s      0.230w     40 calls
HF: Form C                          :      0.033u      0.000s      0.005w     40 calls

**************************************************************************************

Host: CHEMWR1W4NCALT

Timers On : Tue Nov 26 20:29:35 2024
Timers Off: Tue Nov 26 20:29:36 2024

Wall Time:        1.06 seconds

                                                       Time (seconds)
Module                                       User      System        Wall        Calls
DFH: sparsity prep                  :      0.000u      0.000s      0.011w      5 calls
Libint2ERI::Libint2ERI              :      0.017u      0.000s      0.010w     15 calls
DFH: initialize()                   :      0.067u      0.017s      0.054w      5 calls
DFH: AO Construction                :      0.017u      0.000s      0.007w      5 calls
DFH: AO-Met. Contraction            :      0.000u      0.000s      0.001w      5 calls
HF: Form core H                     :      0.000u      0.000s      0.004w      5 calls
HF: Form S/X                        :      0.000u      0.000s      0.001w      5 calls
HF: Guess                           :      0.083u      0.017s      0.052w      5 calls
SAD Guess                           :      0.067u      0.017s      0.049w      5 calls
HF: Form G                          :      0.000u      0.017s      0.005w     45 calls
JK: D                               :      0.000u      0.000s      0.000w     45 calls
JK: USO2AO                          :      0.000u      0.000s      0.000w     45 calls
JK: JK                              :      0.000u      0.017s      0.004w     45 calls
DFH: compute_JK()                   :      0.000u      0.017s      0.004w     45 calls
DFH: Grabbing AOs                   :      0.000u      0.000s      0.000w     45 calls
DFH: compute_J                      :      0.000u      0.000s      0.001w     45 calls
DFH: compute_K                      :      0.000u      0.017s      0.003w     45 calls
JK: AO2USO                          :      0.000u      0.000s      0.000w     45 calls
HF: Form F                          :      0.000u      0.000s      0.000w     45 calls
HF: Form D                          :      0.000u      0.000s      0.000w     45 calls
HF: DIIS                            :      0.250u      0.067s      0.243w     40 calls
HF: Form C                          :      0.017u      0.000s      0.005w     40 calls

--------------------------------------------------------------------------------------
DFH: sparsity prep                  :      0.000u      0.000s      0.011w      5 calls
| Libint2ERI::Libint2ERI            :      0.000u      0.000s      0.008w      5 calls
DFH: initialize()                   :      0.067u      0.017s      0.054w      5 calls
| Libint2ERI::Libint2ERI            :      0.017u      0.000s      0.002w     10 calls
| DFH: AO Construction              :      0.017u      0.000s      0.007w      5 calls
| DFH: AO-Met. Contraction          :      0.000u      0.000s      0.001w      5 calls
HF: Form core H                     :      0.000u      0.000s      0.004w      5 calls
HF: Form S/X                        :      0.000u      0.000s      0.001w      5 calls
HF: Guess                           :      0.083u      0.017s      0.052w      5 calls
| SAD Guess                         :      0.067u      0.017s      0.049w      5 calls
HF: Form G                          :      0.000u      0.017s      0.005w     45 calls
| JK: D                             :      0.000u      0.000s      0.000w     45 calls
| JK: USO2AO                        :      0.000u      0.000s      0.000w     45 calls
| JK: JK                            :      0.000u      0.017s      0.004w     45 calls
| | DFH: compute_JK()               :      0.000u      0.017s      0.004w     45 calls
| | | DFH: Grabbing AOs             :      0.000u      0.000s      0.000w     45 calls
| | | DFH: compute_J                :      0.000u      0.000s      0.001w     45 calls
| | | DFH: compute_K                :      0.000u      0.017s      0.003w     45 calls
| JK: AO2USO                        :      0.000u      0.000s      0.000w     45 calls
HF: Form F                          :      0.000u      0.000s      0.000w     45 calls
HF: Form D                          :      0.000u      0.000s      0.000w     45 calls
HF: DIIS                            :      0.250u      0.067s      0.243w     40 calls
HF: Form C                          :      0.017u      0.000s      0.005w     40 calls

**************************************************************************************

Host: CHEMWR1W4NCALT

Timers On : Tue Nov 26 20:30:53 2024
Timers Off: Tue Nov 26 20:30:54 2024

Wall Time:        1.06 seconds

                                                       Time (seconds)
Module                                       User      System        Wall        Calls
DFH: sparsity prep                  :      0.000u      0.000s      0.011w      5 calls
Libint2ERI::Libint2ERI              :      0.000u      0.000s      0.010w     15 calls
DFH: initialize()                   :      0.067u      0.000s      0.052w      5 calls
DFH: AO Construction                :      0.000u      0.000s      0.007w      5 calls
DFH: AO-Met. Contraction            :      0.000u      0.000s      0.001w      5 calls
HF: Form core H                     :      0.000u      0.017s      0.004w      5 calls
HF: Form S/X                        :      0.000u      0.000s      0.001w      5 calls
HF: Guess                           :      0.083u      0.017s      0.051w      5 calls
SAD Guess                           :      0.083u      0.017s      0.048w      5 calls
HF: Form G                          :      0.000u      0.000s      0.005w     45 calls
JK: D                               :      0.000u      0.000s      0.000w     45 calls
JK: USO2AO                          :      0.000u      0.000s      0.000w     45 calls
JK: JK                              :      0.000u      0.000s      0.004w     45 calls
DFH: compute_JK()                   :      0.000u      0.000s      0.004w     45 calls
DFH: Grabbing AOs                   :      0.000u      0.000s      0.000w     45 calls
DFH: compute_J                      :      0.000u      0.000s      0.001w     45 calls
DFH: compute_K                      :      0.000u      0.000s      0.003w     45 calls
JK: AO2USO                          :      0.000u      0.000s      0.000w     45 calls
HF: Form F                          :      0.000u      0.000s      0.000w     45 calls
HF: Form D                          :      0.000u      0.000s      0.000w     45 calls
HF: DIIS                            :      0.233u      0.050s      0.231w     40 calls
HF: Form C                          :      0.017u      0.000s      0.005w     40 calls

--------------------------------------------------------------------------------------
DFH: sparsity prep                  :      0.000u      0.000s      0.011w      5 calls
| Libint2ERI::Libint2ERI            :      0.000u      0.000s      0.008w      5 calls
DFH: initialize()                   :      0.067u      0.000s      0.052w      5 calls
| Libint2ERI::Libint2ERI            :      0.000u      0.000s      0.002w     10 calls
| DFH: AO Construction              :      0.000u      0.000s      0.007w      5 calls
| DFH: AO-Met. Contraction          :      0.000u      0.000s      0.001w      5 calls
HF: Form core H                     :      0.000u      0.017s      0.004w      5 calls
HF: Form S/X                        :      0.000u      0.000s      0.001w      5 calls
HF: Guess                           :      0.083u      0.017s      0.051w      5 calls
| SAD Guess                         :      0.083u      0.017s      0.048w      5 calls
HF: Form G                          :      0.000u      0.000s      0.005w     45 calls
| JK: D                             :      0.000u      0.000s      0.000w     45 calls
| JK: USO2AO                        :      0.000u      0.000s      0.000w     45 calls
| JK: JK                            :      0.000u      0.000s      0.004w     45 calls
| | DFH: compute_JK()               :      0.000u      0.000s      0.004w     45 calls
| | | DFH: Grabbing AOs             :      0.000u      0.000s      0.000w     45 calls
| | | DFH: compute_J                :      0.000u      0.000s      0.001w     45 calls
| | | DFH: compute_K                :      0.000u      0.000s      0.003w     45 calls
| JK: AO2USO                        :      0.000u      0.000s      0.000w     45 calls
HF: Form F                          :      0.000u      0.000s      0.000w     45 calls
HF: Form D                          :      0.000u      0.000s      0.000w     45 calls
HF: DIIS                            :      0.233u      0.050s      0.231w     40 calls
HF: Form C                          :      0.017u      0.000s      0.005w     40 calls

**************************************************************************************

Host: CHEMWR1W4NCALT

Timers On : Tue Nov 26 20:38:55 2024
Timers Off: Tue Nov 26 20:38:56 2024

Wall Time:        1.08 seconds

                                                       Time (seconds)
Module                                       User      System        Wall        Calls
DFH: sparsity prep                  :      0.017u      0.017s      0.011w      5 calls
Libint2ERI::Libint2ERI              :      0.033u      0.017s      0.010w     15 calls
DFH: initialize()                   :      0.067u      0.000s      0.053w      5 calls
DFH: AO Construction                :      0.000u      0.000s      0.008w      5 calls
DFH: AO-Met. Contraction            :      0.000u      0.000s      0.001w      5 calls
HF: Form core H                     :      0.000u      0.000s      0.004w      5 calls
HF: Form S/X                        :      0.000u      0.000s      0.001w      5 calls
HF: Guess                           :      0.083u      0.033s      0.051w      5 calls
SAD Guess                           :      0.083u      0.033s      0.049w      5 calls
HF: Form G                          :      0.000u      0.017s      0.005w     45 calls
JK: D                               :      0.000u      0.000s      0.000w     45 calls
JK: USO2AO                          :      0.000u      0.000s      0.000w     45 calls
JK: JK                              :      0.000u      0.017s      0.004w     45 calls
DFH: compute_JK()                   :      0.000u      0.017s      0.004w     45 calls
DFH: Grabbing AOs                   :      0.000u      0.000s      0.000w     45 calls
DFH: compute_J                      :      0.000u      0.000s      0.001w     45 calls
DFH: compute_K                      :      0.000u      0.000s      0.003w     45 calls
JK: AO2USO                          :      0.000u      0.000s      0.000w     45 calls
HF: Form F                          :      0.000u      0.000s      0.000w     45 calls
HF: Form D                          :      0.000u      0.000s      0.000w     45 calls
HF: DIIS                            :      0.250u      0.067s      0.238w     40 calls
HF: Form C                          :      0.017u      0.000s      0.005w     40 calls

--------------------------------------------------------------------------------------
DFH: sparsity prep                  :      0.017u      0.017s      0.011w      5 calls
| Libint2ERI::Libint2ERI            :      0.000u      0.017s      0.008w      5 calls
DFH: initialize()                   :      0.067u      0.000s      0.053w      5 calls
| Libint2ERI::Libint2ERI            :      0.033u      0.000s      0.002w     10 calls
| DFH: AO Construction              :      0.000u      0.000s      0.008w      5 calls
| DFH: AO-Met. Contraction          :      0.000u      0.000s      0.001w      5 calls
HF: Form core H                     :      0.000u      0.000s      0.004w      5 calls
HF: Form S/X                        :      0.000u      0.000s      0.001w      5 calls
HF: Guess                           :      0.083u      0.033s      0.051w      5 calls
| SAD Guess                         :      0.083u      0.033s      0.049w      5 calls
HF: Form G                          :      0.000u      0.017s      0.005w     45 calls
| JK: D                             :      0.000u      0.000s      0.000w     45 calls
| JK: USO2AO                        :      0.000u      0.000s      0.000w     45 calls
| JK: JK                            :      0.000u      0.017s      0.004w     45 calls
| | DFH: compute_JK()               :      0.000u      0.017s      0.004w     45 calls
| | | DFH: Grabbing AOs             :      0.000u      0.000s      0.000w     45 calls
| | | DFH: compute_J                :      0.000u      0.000s      0.001w     45 calls
| | | DFH: compute_K                :      0.000u      0.000s      0.003w     45 calls
| JK: AO2USO                        :      0.000u      0.000s      0.000w     45 calls
HF: Form F                          :      0.000u      0.000s      0.000w     45 calls
HF: Form D                          :      0.000u      0.000s      0.000w     45 calls
HF: DIIS                            :      0.250u      0.067s      0.238w     40 calls
HF: Form C                          :      0.017u      0.000s      0.005w     40 calls

**************************************************************************************

Host: CHEMWR1W4NCALT

Timers On : Tue Nov 26 20:41:10 2024
Timers Off: Tue Nov 26 20:41:11 2024

Wall Time:        1.10 seconds

                                                       Time (seconds)
Module                                       User      System        Wall        Calls
DFH: sparsity prep                  :      0.000u      0.017s      0.010w      5 calls
Libint2ERI::Libint2ERI              :      0.000u      0.017s      0.009w     15 calls
DFH: initialize()                   :      0.083u      0.000s      0.053w      5 calls
DFH: AO Construction                :      0.017u      0.000s      0.008w      5 calls
DFH: AO-Met. Contraction            :      0.000u      0.000s      0.001w      5 calls
HF: Form core H                     :      0.000u      0.000s      0.004w      5 calls
HF: Form S/X                        :      0.000u      0.000s      0.001w      5 calls
HF: Guess                           :      0.050u      0.033s      0.056w      5 calls
SAD Guess                           :      0.050u      0.033s      0.053w      5 calls
HF: Form G                          :      0.000u      0.000s      0.009w     45 calls
JK: D                               :      0.000u      0.000s      0.000w     45 calls
JK: USO2AO                          :      0.000u      0.000s      0.000w     45 calls
JK: JK                              :      0.000u      0.000s      0.009w     45 calls
DFH: compute_JK()                   :      0.000u      0.000s      0.009w     45 calls
DFH: Grabbing AOs                   :      0.000u      0.000s      0.000w     45 calls
DFH: compute_J                      :      0.000u      0.000s      0.001w     45 calls
DFH: compute_K                      :      0.000u      0.000s      0.007w     45 calls
JK: AO2USO                          :      0.000u      0.000s      0.000w     45 calls
HF: Form F                          :      0.000u      0.000s      0.000w     45 calls
HF: Form D                          :      0.000u      0.000s      0.000w     45 calls
HF: DIIS                            :      0.200u      0.067s      0.250w     40 calls
HF: Form C                          :      0.017u      0.000s      0.005w     40 calls

--------------------------------------------------------------------------------------
DFH: sparsity prep                  :      0.000u      0.017s      0.010w      5 calls
| Libint2ERI::Libint2ERI            :      0.000u      0.017s      0.007w      5 calls
DFH: initialize()                   :      0.083u      0.000s      0.053w      5 calls
| Libint2ERI::Libint2ERI            :      0.000u      0.000s      0.002w     10 calls
| DFH: AO Construction              :      0.017u      0.000s      0.008w      5 calls
| DFH: AO-Met. Contraction          :      0.000u      0.000s      0.001w      5 calls
HF: Form core H                     :      0.000u      0.000s      0.004w      5 calls
HF: Form S/X                        :      0.000u      0.000s      0.001w      5 calls
HF: Guess                           :      0.050u      0.033s      0.056w      5 calls
| SAD Guess                         :      0.050u      0.033s      0.053w      5 calls
HF: Form G                          :      0.000u      0.000s      0.009w     45 calls
| JK: D                             :      0.000u      0.000s      0.000w     45 calls
| JK: USO2AO                        :      0.000u      0.000s      0.000w     45 calls
| JK: JK                            :      0.000u      0.000s      0.009w     45 calls
| | DFH: compute_JK()               :      0.000u      0.000s      0.009w     45 calls
| | | DFH: Grabbing AOs             :      0.000u      0.000s      0.000w     45 calls
| | | DFH: compute_J                :      0.000u      0.000s      0.001w     45 calls
| | | DFH: compute_K                :      0.000u      0.000s      0.007w     45 calls
| JK: AO2USO                        :      0.000u      0.000s      0.000w     45 calls
HF: Form F                          :      0.000u      0.000s      0.000w     45 calls
HF: Form D                          :      0.000u      0.000s      0.000w     45 calls
HF: DIIS                            :      0.200u      0.067s      0.250w     40 calls
HF: Form C                          :      0.017u      0.000s      0.005w     40 calls

**************************************************************************************

Host: CHEMWR1W4NCALT

Timers On : Tue Nov 26 20:41:46 2024
Timers Off: Tue Nov 26 20:41:47 2024

Wall Time:        1.03 seconds

                                                       Time (seconds)
Module                                       User      System        Wall        Calls
DFH: sparsity prep                  :      0.000u      0.000s      0.010w      5 calls
Libint2ERI::Libint2ERI              :      0.000u      0.000s      0.009w     15 calls
DFH: initialize()                   :      0.083u      0.017s      0.053w      5 calls
DFH: AO Construction                :      0.033u      0.000s      0.007w      5 calls
DFH: AO-Met. Contraction            :      0.000u      0.000s      0.001w      5 calls
HF: Form core H                     :      0.000u      0.017s      0.003w      5 calls
HF: Form S/X                        :      0.000u      0.000s      0.000w      5 calls
HF: Guess                           :      0.050u      0.000s      0.051w      5 calls
SAD Guess                           :      0.050u      0.000s      0.049w      5 calls
HF: Form G                          :      0.017u      0.000s      0.005w     45 calls
JK: D                               :      0.000u      0.000s      0.000w     45 calls
JK: USO2AO                          :      0.000u      0.000s      0.000w     45 calls
JK: JK                              :      0.017u      0.000s      0.005w     45 calls
DFH: compute_JK()                   :      0.017u      0.000s      0.005w     45 calls
DFH: Grabbing AOs                   :      0.000u      0.000s      0.000w     45 calls
DFH: compute_J                      :      0.000u      0.000s      0.001w     45 calls
DFH: compute_K                      :      0.017u      0.000s      0.003w     45 calls
JK: AO2USO                          :      0.000u      0.000s      0.000w     45 calls
HF: Form F                          :      0.000u      0.000s      0.000w     45 calls
HF: Form D                          :      0.000u      0.000s      0.000w     45 calls
HF: DIIS                            :      0.200u      0.083s      0.226w     40 calls
HF: Form C                          :      0.017u      0.000s      0.005w     40 calls

--------------------------------------------------------------------------------------
DFH: sparsity prep                  :      0.000u      0.000s      0.010w      5 calls
| Libint2ERI::Libint2ERI            :      0.000u      0.000s      0.007w      5 calls
DFH: initialize()                   :      0.083u      0.017s      0.053w      5 calls
| Libint2ERI::Libint2ERI            :      0.000u      0.000s      0.002w     10 calls
| DFH: AO Construction              :      0.033u      0.000s      0.007w      5 calls
| DFH: AO-Met. Contraction          :      0.000u      0.000s      0.001w      5 calls
HF: Form core H                     :      0.000u      0.017s      0.003w      5 calls
HF: Form S/X                        :      0.000u      0.000s      0.000w      5 calls
HF: Guess                           :      0.050u      0.000s      0.051w      5 calls
| SAD Guess                         :      0.050u      0.000s      0.049w      5 calls
HF: Form G                          :      0.017u      0.000s      0.005w     45 calls
| JK: D                             :      0.000u      0.000s      0.000w     45 calls
| JK: USO2AO                        :      0.000u      0.000s      0.000w     45 calls
| JK: JK                            :      0.017u      0.000s      0.005w     45 calls
| | DFH: compute_JK()               :      0.017u      0.000s      0.005w     45 calls
| | | DFH: Grabbing AOs             :      0.000u      0.000s      0.000w     45 calls
| | | DFH: compute_J                :      0.000u      0.000s      0.001w     45 calls
| | | DFH: compute_K                :      0.017u      0.000s      0.003w     45 calls
| JK: AO2USO                        :      0.000u      0.000s      0.000w     45 calls
HF: Form F                          :      0.000u      0.000s      0.000w     45 calls
HF: Form D                          :      0.000u      0.000s      0.000w     45 calls
HF: DIIS                            :      0.200u      0.083s      0.226w     40 calls
HF: Form C                          :      0.017u      0.000s      0.005w     40 calls

**************************************************************************************

Host: CHEMWR1W4NCALT

Timers On : Tue Nov 26 20:44:29 2024
Timers Off: Tue Nov 26 20:44:30 2024

Wall Time:        0.95 seconds

                                                       Time (seconds)
Module                                       User      System        Wall        Calls
DFH: sparsity prep                  :      0.000u      0.000s      0.009w      4 calls
Libint2ERI::Libint2ERI              :      0.017u      0.000s      0.009w     12 calls
DFH: initialize()                   :      0.067u      0.000s      0.044w      4 calls
DFH: AO Construction                :      0.017u      0.000s      0.007w      4 calls
DFH: AO-Met. Contraction            :      0.000u      0.000s      0.001w      4 calls
HF: Form core H                     :      0.000u      0.000s      0.004w      4 calls
HF: Form S/X                        :      0.000u      0.000s      0.001w      4 calls
HF: Guess                           :      0.050u      0.017s      0.041w      4 calls
SAD Guess                           :      0.050u      0.017s      0.039w      4 calls
HF: Form G                          :      0.017u      0.000s      0.004w     36 calls
JK: D                               :      0.000u      0.000s      0.000w     36 calls
JK: USO2AO                          :      0.000u      0.000s      0.000w     36 calls
JK: JK                              :      0.017u      0.000s      0.003w     36 calls
DFH: compute_JK()                   :      0.017u      0.000s      0.003w     36 calls
DFH: Grabbing AOs                   :      0.000u      0.000s      0.000w     36 calls
DFH: compute_J                      :      0.017u      0.000s      0.000w     36 calls
DFH: compute_K                      :      0.000u      0.000s      0.002w     36 calls
JK: AO2USO                          :      0.000u      0.000s      0.000w     36 calls
HF: Form F                          :      0.000u      0.000s      0.000w     36 calls
HF: Form D                          :      0.000u      0.000s      0.000w     36 calls
HF: DIIS                            :      0.183u      0.067s      0.233w     32 calls
HF: Form C                          :      0.000u      0.000s      0.004w     32 calls

--------------------------------------------------------------------------------------
DFH: sparsity prep                  :      0.000u      0.000s      0.009w      4 calls
| Libint2ERI::Libint2ERI            :      0.000u      0.000s      0.007w      4 calls
DFH: initialize()                   :      0.067u      0.000s      0.044w      4 calls
| Libint2ERI::Libint2ERI            :      0.017u      0.000s      0.002w      8 calls
| DFH: AO Construction              :      0.017u      0.000s      0.007w      4 calls
| DFH: AO-Met. Contraction          :      0.000u      0.000s      0.001w      4 calls
HF: Form core H                     :      0.000u      0.000s      0.004w      4 calls
HF: Form S/X                        :      0.000u      0.000s      0.001w      4 calls
HF: Guess                           :      0.050u      0.017s      0.041w      4 calls
| SAD Guess                         :      0.050u      0.017s      0.039w      4 calls
HF: Form G                          :      0.017u      0.000s      0.004w     36 calls
| JK: D                             :      0.000u      0.000s      0.000w     36 calls
| JK: USO2AO                        :      0.000u      0.000s      0.000w     36 calls
| JK: JK                            :      0.017u      0.000s      0.003w     36 calls
| | DFH: compute_JK()               :      0.017u      0.000s      0.003w     36 calls
| | | DFH: Grabbing AOs             :      0.000u      0.000s      0.000w     36 calls
| | | DFH: compute_J                :      0.017u      0.000s      0.000w     36 calls
| | | DFH: compute_K                :      0.000u      0.000s      0.002w     36 calls
| JK: AO2USO                        :      0.000u      0.000s      0.000w     36 calls
HF: Form F                          :      0.000u      0.000s      0.000w     36 calls
HF: Form D                          :      0.000u      0.000s      0.000w     36 calls
HF: DIIS                            :      0.183u      0.067s      0.233w     32 calls
HF: Form C                          :      0.000u      0.000s      0.004w     32 calls

**************************************************************************************

Host: CHEMWR1W4NCALT

Timers On : Mon Dec  2 02:58:23 2024
Timers Off: Mon Dec  2 02:58:25 2024

Wall Time:        1.25 seconds

                                                       Time (seconds)
Module                                       User      System        Wall        Calls
Total PK formation time             :      0.000u      0.000s      0.011w      1 calls
Libint2ERI::Libint2ERI              :      0.000u      0.000s      0.008w      3 calls
HF: Form core H                     :      0.000u      0.000s      0.003w      1 calls
HF: Form S/X                        :      0.000u      0.017s      0.006w      1 calls
HF: Guess                           :      0.017u      0.000s      0.015w      1 calls
SAD Guess                           :      0.017u      0.000s      0.015w      1 calls
HF: Form G                          :      0.000u      0.000s      0.000w     12 calls
JK: D                               :      0.000u      0.000s      0.000w     12 calls
JK: USO2AO                          :      0.000u      0.000s      0.000w     12 calls
JK: JK                              :      0.000u      0.000s      0.000w     12 calls
PK computes JK                      :      0.000u      0.000s      0.000w     12 calls
JK: AO2USO                          :      0.000u      0.000s      0.000w     12 calls
HF: Form F                          :      0.000u      0.000s      0.000w     12 calls
HF: Form D                          :      0.000u      0.000s      0.000w     12 calls
HF: DIIS                            :      0.133u      0.100s      0.452w     11 calls
HF: Form C                          :      0.017u      0.000s      0.001w     11 calls

--------------------------------------------------------------------------------------
Total PK formation time             :      0.000u      0.000s      0.011w      1 calls
| Libint2ERI::Libint2ERI            :      0.000u      0.000s      0.008w      2 calls
HF: Form core H                     :      0.000u      0.000s      0.003w      1 calls
HF: Form S/X                        :      0.000u      0.017s      0.006w      1 calls
HF: Guess                           :      0.017u      0.000s      0.015w      1 calls
| SAD Guess                         :      0.017u      0.000s      0.015w      1 calls
HF: Form G                          :      0.000u      0.000s      0.000w     12 calls
| JK: D                             :      0.000u      0.000s      0.000w     12 calls
| JK: USO2AO                        :      0.000u      0.000s      0.000w     12 calls
| JK: JK                            :      0.000u      0.000s      0.000w     12 calls
| | PK computes JK                  :      0.000u      0.000s      0.000w     12 calls
| JK: AO2USO                        :      0.000u      0.000s      0.000w     12 calls
HF: Form F                          :      0.000u      0.000s      0.000w     12 calls
HF: Form D                          :      0.000u      0.000s      0.000w     12 calls
HF: DIIS                            :      0.133u      0.100s      0.452w     11 calls
HF: Form C                          :      0.017u      0.000s      0.001w     11 calls
Libint2ERI::Libint2ERI              :      0.000u      0.000s      0.001w      1 calls

**************************************************************************************

Host: CHEMWR1W4NCALT

Timers On : Mon Dec  2 03:11:21 2024
Timers Off: Mon Dec  2 03:11:22 2024

Wall Time:        0.65 seconds

                                                       Time (seconds)
Module                                       User      System        Wall        Calls
Total PK formation time             :      0.000u      0.000s      0.010w      1 calls
Libint2ERI::Libint2ERI              :      0.000u      0.000s      0.007w      2 calls
HF: Form core H                     :      0.000u      0.000s      0.002w      1 calls
HF: Form S/X                        :      0.000u      0.000s      0.000w      1 calls
HF: Guess                           :      0.017u      0.017s      0.015w      1 calls
SAD Guess                           :      0.017u      0.017s      0.014w      1 calls
HF: Form G                          :      0.000u      0.000s      0.000w     12 calls
JK: D                               :      0.000u      0.000s      0.000w     12 calls
JK: USO2AO                          :      0.000u      0.000s      0.000w     12 calls
JK: JK                              :      0.000u      0.000s      0.000w     12 calls
PK computes JK                      :      0.000u      0.000s      0.000w     12 calls
JK: AO2USO                          :      0.000u      0.000s      0.000w     12 calls
HF: Form F                          :      0.000u      0.000s      0.000w     12 calls
HF: Form D                          :      0.000u      0.000s      0.000w     12 calls
HF: DIIS                            :      0.117u      0.067s      0.197w     11 calls
HF: Form C                          :      0.000u      0.000s      0.001w     11 calls

--------------------------------------------------------------------------------------
Total PK formation time             :      0.000u      0.000s      0.010w      1 calls
| Libint2ERI::Libint2ERI            :      0.000u      0.000s      0.007w      2 calls
HF: Form core H                     :      0.000u      0.000s      0.002w      1 calls
HF: Form S/X                        :      0.000u      0.000s      0.000w      1 calls
HF: Guess                           :      0.017u      0.017s      0.015w      1 calls
| SAD Guess                         :      0.017u      0.017s      0.014w      1 calls
HF: Form G                          :      0.000u      0.000s      0.000w     12 calls
| JK: D                             :      0.000u      0.000s      0.000w     12 calls
| JK: USO2AO                        :      0.000u      0.000s      0.000w     12 calls
| JK: JK                            :      0.000u      0.000s      0.000w     12 calls
| | PK computes JK                  :      0.000u      0.000s      0.000w     12 calls
| JK: AO2USO                        :      0.000u      0.000s      0.000w     12 calls
HF: Form F                          :      0.000u      0.000s      0.000w     12 calls
HF: Form D                          :      0.000u      0.000s      0.000w     12 calls
HF: DIIS                            :      0.117u      0.067s      0.197w     11 calls
HF: Form C                          :      0.000u      0.000s      0.001w     11 calls

**************************************************************************************

Host: CHEMWR1W4NCALT

Timers On : Mon Dec  2 03:13:29 2024
Timers Off: Mon Dec  2 03:13:30 2024

Wall Time:        0.64 seconds

                                                       Time (seconds)
Module                                       User      System        Wall        Calls
Total PK formation time             :      0.000u      0.000s      0.009w      1 calls
Libint2ERI::Libint2ERI              :      0.000u      0.000s      0.007w      2 calls
HF: Form core H                     :      0.000u      0.000s      0.002w      1 calls
HF: Form S/X                        :      0.000u      0.000s      0.000w      1 calls
HF: Guess                           :      0.017u      0.000s      0.012w      1 calls
SAD Guess                           :      0.000u      0.000s      0.012w      1 calls
HF: Form G                          :      0.000u      0.000s      0.000w     12 calls
JK: D                               :      0.000u      0.000s      0.000w     12 calls
JK: USO2AO                          :      0.000u      0.000s      0.000w     12 calls
JK: JK                              :      0.000u      0.000s      0.000w     12 calls
PK computes JK                      :      0.000u      0.000s      0.000w     12 calls
JK: AO2USO                          :      0.000u      0.000s      0.000w     12 calls
HF: Form F                          :      0.000u      0.000s      0.000w     12 calls
HF: Form D                          :      0.000u      0.000s      0.000w     12 calls
HF: DIIS                            :      0.133u      0.067s      0.198w     11 calls
HF: Form C                          :      0.000u      0.000s      0.001w     11 calls

--------------------------------------------------------------------------------------
Total PK formation time             :      0.000u      0.000s      0.009w      1 calls
| Libint2ERI::Libint2ERI            :      0.000u      0.000s      0.007w      2 calls
HF: Form core H                     :      0.000u      0.000s      0.002w      1 calls
HF: Form S/X                        :      0.000u      0.000s      0.000w      1 calls
HF: Guess                           :      0.017u      0.000s      0.012w      1 calls
| SAD Guess                         :      0.000u      0.000s      0.012w      1 calls
HF: Form G                          :      0.000u      0.000s      0.000w     12 calls
| JK: D                             :      0.000u      0.000s      0.000w     12 calls
| JK: USO2AO                        :      0.000u      0.000s      0.000w     12 calls
| JK: JK                            :      0.000u      0.000s      0.000w     12 calls
| | PK computes JK                  :      0.000u      0.000s      0.000w     12 calls
| JK: AO2USO                        :      0.000u      0.000s      0.000w     12 calls
HF: Form F                          :      0.000u      0.000s      0.000w     12 calls
HF: Form D                          :      0.000u      0.000s      0.000w     12 calls
HF: DIIS                            :      0.133u      0.067s      0.198w     11 calls
HF: Form C                          :      0.000u      0.000s      0.001w     11 calls

**************************************************************************************

Host: CHEMWR1W4NCALT

Timers On : Mon Dec  2 03:14:27 2024
Timers Off: Mon Dec  2 03:14:28 2024

Wall Time:        0.65 seconds

                                                       Time (seconds)
Module                                       User      System        Wall        Calls
Total PK formation time             :      0.017u      0.000s      0.009w      1 calls
Libint2ERI::Libint2ERI              :      0.000u      0.017s      0.008w      3 calls
HF: Form core H                     :      0.000u      0.000s      0.002w      1 calls
HF: Form S/X                        :      0.000u      0.000s      0.000w      1 calls
HF: Guess                           :      0.000u      0.000s      0.013w      1 calls
SAD Guess                           :      0.000u      0.000s      0.012w      1 calls
HF: Form G                          :      0.000u      0.000s      0.000w     12 calls
JK: D                               :      0.000u      0.000s      0.000w     12 calls
JK: USO2AO                          :      0.000u      0.000s      0.000w     12 calls
JK: JK                              :      0.000u      0.000s      0.000w     12 calls
PK computes JK                      :      0.000u      0.000s      0.000w     12 calls
JK: AO2USO                          :      0.000u      0.000s      0.000w     12 calls
HF: Form F                          :      0.000u      0.000s      0.000w     12 calls
HF: Form D                          :      0.000u      0.000s      0.000w     12 calls
HF: DIIS                            :      0.117u      0.067s      0.194w     11 calls
HF: Form C                          :      0.000u      0.000s      0.001w     11 calls

--------------------------------------------------------------------------------------
Total PK formation time             :      0.017u      0.000s      0.009w      1 calls
| Libint2ERI::Libint2ERI            :      0.000u      0.000s      0.007w      2 calls
HF: Form core H                     :      0.000u      0.000s      0.002w      1 calls
HF: Form S/X                        :      0.000u      0.000s      0.000w      1 calls
HF: Guess                           :      0.000u      0.000s      0.013w      1 calls
| SAD Guess                         :      0.000u      0.000s      0.012w      1 calls
HF: Form G                          :      0.000u      0.000s      0.000w     12 calls
| JK: D                             :      0.000u      0.000s      0.000w     12 calls
| JK: USO2AO                        :      0.000u      0.000s      0.000w     12 calls
| JK: JK                            :      0.000u      0.000s      0.000w     12 calls
| | PK computes JK                  :      0.000u      0.000s      0.000w     12 calls
| JK: AO2USO                        :      0.000u      0.000s      0.000w     12 calls
HF: Form F                          :      0.000u      0.000s      0.000w     12 calls
HF: Form D                          :      0.000u      0.000s      0.000w     12 calls
HF: DIIS                            :      0.117u      0.067s      0.194w     11 calls
HF: Form C                          :      0.000u      0.000s      0.001w     11 calls
Libint2ERI::Libint2ERI              :      0.000u      0.017s      0.001w      1 calls

**************************************************************************************

Host: CHEMWR1W4NCALT

Timers On : Mon Dec  2 03:14:38 2024
Timers Off: Mon Dec  2 03:14:39 2024

Wall Time:        0.57 seconds

                                                       Time (seconds)
Module                                       User      System        Wall        Calls
Total PK formation time             :      0.017u      0.000s      0.003w      1 calls
Libint2ERI::Libint2ERI              :      0.000u      0.000s      0.002w      3 calls
HF: Form core H                     :      0.000u      0.000s      0.001w      1 calls
HF: Form S/X                        :      0.000u      0.000s      0.000w      1 calls
HF: Guess                           :      0.017u      0.000s      0.011w      1 calls
SAD Guess                           :      0.017u      0.000s      0.011w      1 calls
HF: Form G                          :      0.000u      0.000s      0.000w     12 calls
JK: D                               :      0.000u      0.000s      0.000w     12 calls
JK: USO2AO                          :      0.000u      0.000s      0.000w     12 calls
JK: JK                              :      0.000u      0.000s      0.000w     12 calls
PK computes JK                      :      0.000u      0.000s      0.000w     12 calls
JK: AO2USO                          :      0.000u      0.000s      0.000w     12 calls
HF: Form F                          :      0.000u      0.000s      0.000w     12 calls
HF: Form D                          :      0.000u      0.000s      0.000w     12 calls
HF: DIIS                            :      0.133u      0.067s      0.177w     11 calls
HF: Form C                          :      0.000u      0.000s      0.001w     11 calls

--------------------------------------------------------------------------------------
Total PK formation time             :      0.017u      0.000s      0.003w      1 calls
| Libint2ERI::Libint2ERI            :      0.000u      0.000s      0.001w      2 calls
HF: Form core H                     :      0.000u      0.000s      0.001w      1 calls
HF: Form S/X                        :      0.000u      0.000s      0.000w      1 calls
HF: Guess                           :      0.017u      0.000s      0.011w      1 calls
| SAD Guess                         :      0.017u      0.000s      0.011w      1 calls
HF: Form G                          :      0.000u      0.000s      0.000w     12 calls
| JK: D                             :      0.000u      0.000s      0.000w     12 calls
| JK: USO2AO                        :      0.000u      0.000s      0.000w     12 calls
| JK: JK                            :      0.000u      0.000s      0.000w     12 calls
| | PK computes JK                  :      0.000u      0.000s      0.000w     12 calls
| JK: AO2USO                        :      0.000u      0.000s      0.000w     12 calls
HF: Form F                          :      0.000u      0.000s      0.000w     12 calls
HF: Form D                          :      0.000u      0.000s      0.000w     12 calls
[...]

Timers On : Mon Dec  2 03:25:49 2024
Timers Off: Mon Dec  2 03:25:50 2024

Wall Time:        0.66 seconds

                                                       Time (seconds)
Module                                       User      System        Wall        Calls
Total PK formation time             :      0.000u      0.000s      0.009w      1 calls
Libint2ERI::Libint2ERI              :      0.000u      0.000s      0.007w      3 calls
HF: Form core H                     :      0.000u      0.000s      0.002w      1 calls
HF: Form S/X                        :      0.000u      0.000s      0.000w      1 calls
HF: Guess                           :      0.017u      0.000s      0.013w      1 calls
SAD Guess                           :      0.000u      0.000s      0.012w      1 calls
HF: Form G                          :      0.000u      0.000s      0.000w     12 calls
JK: D                               :      0.000u      0.000s      0.000w     12 calls
JK: USO2AO                          :      0.000u      0.000s      0.000w     12 calls
JK: JK                              :      0.000u      0.000s      0.000w     12 calls
PK computes JK                      :      0.000u      0.000s      0.000w     12 calls
JK: AO2USO                          :      0.000u      0.000s      0.000w     12 calls
HF: Form F                          :      0.000u      0.000s      0.000w     12 calls
HF: Form D                          :      0.000u      0.000s      0.000w     12 calls
HF: DIIS                            :      0.133u      0.067s      0.199w     11 calls
HF: Form C                          :      0.000u      0.000s      0.001w     11 calls

--------------------------------------------------------------------------------------
Total PK formation time             :      0.000u      0.000s      0.009w      1 calls
| Libint2ERI::Libint2ERI            :      0.000u      0.000s      0.007w      2 calls
HF: Form core H                     :      0.000u      0.000s      0.002w      1 calls
HF: Form S/X                        :      0.000u      0.000s      0.000w      1 calls
HF: Guess                           :      0.017u      0.000s      0.013w      1 calls
| SAD Guess                         :      0.000u      0.000s      0.012w      1 calls
HF: Form G                          :      0.000u      0.000s      0.000w     12 calls
| JK: D                             :      0.000u      0.000s      0.000w     12 calls
| JK: USO2AO                        :      0.000u      0.000s      0.000w     12 calls
| JK: JK                            :      0.000u      0.000s      0.000w     12 calls
| | PK computes JK                  :      0.000u      0.000s      0.000w     12 calls
| JK: AO2USO                        :      0.000u      0.000s      0.000w     12 calls
HF: Form F                          :      0.000u      0.000s      0.000w     12 calls
HF: Form D                          :      0.000u      0.000s      0.000w     12 calls
HF: DIIS                            :      0.133u      0.067s      0.199w     11 calls
HF: Form C                          :      0.000u      0.000s      0.001w     11 calls
Libint2ERI::Libint2ERI              :      0.000u      0.000s      0.001w      1 calls

**************************************************************************************

Host: CHEMWR1W4NCALT

Timers On : Mon Dec  2 03:26:09 2024
Timers Off: Mon Dec  2 03:26:10 2024

Wall Time:        0.61 seconds

                                                       Time (seconds)
Module                                       User      System        Wall        Calls
Total PK formation time             :      0.000u      0.000s      0.010w      1 calls
Libint2ERI::Libint2ERI              :      0.000u      0.000s      0.008w      3 calls
HF: Form core H                     :      0.000u      0.000s      0.002w      1 calls
HF: Form S/X                        :      0.000u      0.000s      0.001w      1 calls
HF: Guess                           :      0.017u      0.017s      0.018w      1 calls
SAD Guess                           :      0.017u      0.017s      0.014w      1 calls
HF: Form G                          :      0.000u      0.000s      0.000w     12 calls
JK: D                               :      0.000u      0.000s      0.000w     12 calls
JK: USO2AO                          :      0.000u      0.000s      0.000w     12 calls
JK: JK                              :      0.000u      0.000s      0.000w     12 calls
PK computes JK                      :      0.000u      0.000s      0.000w     12 calls
JK: AO2USO                          :      0.000u      0.000s      0.000w     12 calls
HF: Form F                          :      0.000u      0.000s      0.000w     12 calls
HF: Form D                          :      0.000u      0.000s      0.000w     12 calls
HF: DIIS                            :      0.117u      0.067s      0.178w     11 calls
HF: Form C                          :      0.000u      0.000s      0.001w     11 calls

--------------------------------------------------------------------------------------
Total PK formation time             :      0.000u      0.000s      0.010w      1 calls
| Libint2ERI::Libint2ERI            :      0.000u      0.000s      0.008w      2 calls
HF: Form core H                     :      0.000u      0.000s      0.002w      1 calls
HF: Form S/X                        :      0.000u      0.000s      0.001w      1 calls
HF: Guess                           :      0.017u      0.017s      0.018w      1 calls
| SAD Guess                         :      0.017u      0.017s      0.014w      1 calls
HF: Form G                          :      0.000u      0.000s      0.000w     12 calls
| JK: D                             :      0.000u      0.000s      0.000w     12 calls
| JK: USO2AO                        :      0.000u      0.000s      0.000w     12 calls
| JK: JK                            :      0.000u      0.000s      0.000w     12 calls
| | PK computes JK                  :      0.000u      0.000s      0.000w     12 calls
| JK: AO2USO                        :      0.000u      0.000s      0.000w     12 calls
HF: Form F                          :      0.000u      0.000s      0.000w     12 calls
HF: Form D                          :      0.000u      0.000s      0.000w     12 calls
HF: DIIS                            :      0.117u      0.067s      0.178w     11 calls
HF: Form C                          :      0.000u      0.000s      0.001w     11 calls
Libint2ERI::Libint2ERI              :      0.000u      0.000s      0.001w      1 calls

**************************************************************************************

Host: CHEMWR1W4NCALT

Timers On : Mon Dec  2 03:26:59 2024
Timers Off: Mon Dec  2 03:27:00 2024

Wall Time:        0.66 seconds

                                                       Time (seconds)
Module                                       User      System        Wall        Calls
Total PK formation time             :      0.000u      0.017s      0.009w      1 calls
Libint2ERI::Libint2ERI              :      0.000u      0.017s      0.007w      3 calls
HF: Form core H                     :      0.000u      0.000s      0.001w      1 calls
HF: Form S/X                        :      0.000u      0.000s      0.000w      1 calls
HF: Guess                           :      0.017u      0.000s      0.013w      1 calls
SAD Guess                           :      0.017u      0.000s      0.012w      1 calls
HF: Form G                          :      0.000u      0.000s      0.000w     12 calls
JK: D                               :      0.000u      0.000s      0.000w     12 calls
JK: USO2AO                          :      0.000u      0.000s      0.000w     12 calls
JK: JK                              :      0.000u      0.000s      0.000w     12 calls
PK computes JK                      :      0.000u      0.000s      0.000w     12 calls
JK: AO2USO                          :      0.000u      0.000s      0.000w     12 calls
HF: Form F                          :      0.000u      0.000s      0.000w     12 calls
HF: Form D                          :      0.000u      0.000s      0.000w     12 calls
HF: DIIS                            :      0.100u      0.067s      0.196w     11 calls
HF: Form C                          :      0.033u      0.000s      0.001w     11 calls

--------------------------------------------------------------------------------------
Total PK formation time             :      0.000u      0.017s      0.009w      1 calls
| Libint2ERI::Libint2ERI            :      0.000u      0.017s      0.007w      2 calls
HF: Form core H                     :      0.000u      0.000s      0.001w      1 calls
HF: Form S/X                        :      0.000u      0.000s      0.000w      1 calls
HF: Guess                           :      0.017u      0.000s      0.013w      1 calls
| SAD Guess                         :      0.017u      0.000s      0.012w      1 calls
HF: Form G                          :      0.000u      0.000s      0.000w     12 calls
| JK: D                             :      0.000u      0.000s      0.000w     12 calls
| JK: USO2AO                        :      0.000u      0.000s      0.000w     12 calls
| JK: JK                            :      0.000u      0.000s      0.000w     12 calls
| | PK computes JK                  :      0.000u      0.000s      0.000w     12 calls
| JK: AO2USO                        :      0.000u      0.000s      0.000w     12 calls
HF: Form F                          :      0.000u      0.000s      0.000w     12 calls
HF: Form D                          :      0.000u      0.000s      0.000w     12 calls
HF: DIIS                            :      0.100u      0.067s      0.196w     11 calls
HF: Form C                          :      0.033u      0.000s      0.001w     11 calls
Libint2ERI::Libint2ERI              :      0.000u      0.000s      0.001w      1 calls

**************************************************************************************

Host: CHEMWR1W4NCALT

Timers On : Mon Dec  2 03:27:53 2024
Timers Off: Mon Dec  2 03:27:54 2024

Wall Time:        0.67 seconds

                                                       Time (seconds)
Module                                       User      System        Wall        Calls
Total PK formation time             :      0.000u      0.017s      0.009w      1 calls
Libint2ERI::Libint2ERI              :      0.000u      0.017s      0.007w      3 calls
HF: Form core H                     :      0.000u      0.000s      0.001w      1 calls
HF: Form S/X                        :      0.000u      0.000s      0.000w      1 calls
HF: Guess                           :      0.017u      0.000s      0.013w      1 calls
SAD Guess                           :      0.017u      0.000s      0.012w      1 calls
HF: Form G                          :      0.000u      0.000s      0.000w     12 calls
JK: D                               :      0.000u      0.000s      0.000w     12 calls
JK: USO2AO                          :      0.000u      0.000s      0.000w     12 calls
JK: JK                              :      0.000u      0.000s      0.000w     12 calls
PK computes JK                      :      0.000u      0.000s      0.000w     12 calls
JK: AO2USO                          :      0.000u      0.000s      0.000w     12 calls
HF: Form F                          :      0.000u      0.000s      0.000w     12 calls
HF: Form D                          :      0.000u      0.000s      0.000w     12 calls
HF: DIIS                            :      0.133u      0.067s      0.195w     11 calls
HF: Form C                          :      0.000u      0.000s      0.001w     11 calls

--------------------------------------------------------------------------------------
Total PK formation time             :      0.000u      0.017s      0.009w      1 calls
| Libint2ERI::Libint2ERI            :      0.000u      0.017s      0.007w      2 calls
HF: Form core H                     :      0.000u      0.000s      0.001w      1 calls
HF: Form S/X                        :      0.000u      0.000s      0.000w      1 calls
HF: Guess                           :      0.017u      0.000s      0.013w      1 calls
| SAD Guess                         :      0.017u      0.000s      0.012w      1 calls
HF: Form G                          :      0.000u      0.000s      0.000w     12 calls
| JK: D                             :      0.000u      0.000s      0.000w     12 calls
| JK: USO2AO                        :      0.000u      0.000s      0.000w     12 calls
| JK: JK                            :      0.000u      0.000s      0.000w     12 calls
| | PK computes JK                  :      0.000u      0.000s      0.000w     12 calls
| JK: AO2USO                        :      0.000u      0.000s      0.000w     12 calls
HF: Form F                          :      0.000u      0.000s      0.000w     12 calls
HF: Form D                          :      0.000u      0.000s      0.000w     12 calls
HF: DIIS                            :      0.133u      0.067s      0.195w     11 calls
HF: Form C                          :      0.000u      0.000s      0.001w     11 calls
Libint2ERI::Libint2ERI              :      0.000u      0.000s      0.001w      1 calls

**************************************************************************************

Host: CHEMWR1W4NCALT

Timers On : Mon Dec  2 03:29:11 2024
Timers Off: Mon Dec  2 03:29:12 2024

Wall Time:        0.60 seconds

                                                       Time (seconds)
Module                                       User      System        Wall        Calls
Total PK formation time             :      0.000u      0.017s      0.012w      1 calls
Libint2ERI::Libint2ERI              :      0.000u      0.017s      0.010w      3 calls
HF: Form core H                     :      0.000u      0.000s      0.003w      1 calls
HF: Form S/X                        :      0.000u      0.000s      0.000w      1 calls
HF: Guess                           :      0.017u      0.000s      0.012w      1 calls
SAD Guess                           :      0.017u      0.000s      0.012w      1 calls
HF: Form G                          :      0.000u      0.000s      0.000w     12 calls
JK: D                               :      0.000u      0.000s      0.000w     12 calls
JK: USO2AO                          :      0.000u      0.000s      0.000w     12 calls
JK: JK                              :      0.000u      0.000s      0.000w     12 calls
PK computes JK                      :      0.000u      0.000s      0.000w     12 calls
JK: AO2USO                          :      0.000u      0.000s      0.000w     12 calls
HF: Form F                          :      0.000u      0.000s      0.000w     12 calls
HF: Form D                          :      0.000u      0.000s      0.000w     12 calls
HF: DIIS                            :      0.117u      0.067s      0.175w     11 calls
HF: Form C                          :      0.017u      0.000s      0.001w     11 calls

--------------------------------------------------------------------------------------
Total PK formation time             :      0.000u      0.017s      0.012w      1 calls
| Libint2ERI::Libint2ERI            :      0.000u      0.017s      0.010w      2 calls
HF: Form core H                     :      0.000u      0.000s      0.003w      1 calls
HF: Form S/X                        :      0.000u      0.000s      0.000w      1 calls
HF: Guess                           :      0.017u      0.000s      0.012w      1 calls
| SAD Guess                         :      0.017u      0.000s      0.012w      1 calls
HF: Form G                          :      0.000u      0.000s      0.000w     12 calls
| JK: D                             :      0.000u      0.000s      0.000w     12 calls
| JK: USO2AO                        :      0.000u      0.000s      0.000w     12 calls
| JK: JK                            :      0.000u      0.000s      0.000w     12 calls
| | PK computes JK                  :      0.000u      0.000s      0.000w     12 calls
| JK: AO2USO                        :      0.000u      0.000s      0.000w     12 calls
HF: Form F                          :      0.000u      0.000s      0.000w     12 calls
HF: Form D                          :      0.000u      0.000s      0.000w     12 calls
HF: DIIS                            :      0.117u      0.067s      0.175w     11 calls
HF: Form C                          :      0.017u      0.000s      0.001w     11 calls
Libint2ERI::Libint2ERI              :      0.000u      0.000s      0.001w      1 calls

**************************************************************************************

Host: CHEMWR1W4NCALT

Timers On : Mon Dec  2 03:30:22 2024
Timers Off: Mon Dec  2 03:30:23 2024

Wall Time:        0.61 seconds

                                                       Time (seconds)
Module                                       User      System        Wall        Calls
Total PK formation time             :      0.017u      0.000s      0.010w      1 calls
Libint2ERI::Libint2ERI              :      0.000u      0.000s      0.008w      3 calls
HF: Form core H                     :      0.000u      0.000s      0.002w      1 calls
HF: Form S/X                        :      0.000u      0.000s      0.000w      1 calls
HF: Guess                           :      0.000u      0.000s      0.017w      1 calls
SAD Guess                           :      0.000u      0.000s      0.016w      1 calls
HF: Form G                          :      0.000u      0.000s      0.000w     12 calls
JK: D                               :      0.000u      0.000s      0.000w     12 calls
JK: USO2AO                          :      0.000u      0.000s      0.000w     12 calls
JK: JK                              :      0.000u      0.000s      0.000w     12 calls
PK computes JK                      :      0.000u      0.000s      0.000w     12 calls
JK: AO2USO                          :      0.000u      0.000s      0.000w     12 calls
HF: Form F                          :      0.000u      0.000s      0.000w     12 calls
HF: Form D                          :      0.000u      0.000s      0.000w     12 calls
HF: DIIS                            :      0.117u      0.067s      0.180w     11 calls
HF: Form C                          :      0.000u      0.000s      0.001w     11 calls

--------------------------------------------------------------------------------------
Total PK formation time             :      0.017u      0.000s      0.010w      1 calls
| Libint2ERI::Libint2ERI            :      0.000u      0.000s      0.007w      2 calls
HF: Form core H                     :      0.000u      0.000s      0.002w      1 calls
HF: Form S/X                        :      0.000u      0.000s      0.000w      1 calls
HF: Guess                           :      0.000u      0.000s      0.017w      1 calls
| SAD Guess                         :      0.000u      0.000s      0.016w      1 calls
HF: Form G                          :      0.000u      0.000s      0.000w     12 calls
| JK: D                             :      0.000u      0.000s      0.000w     12 calls
| JK: USO2AO                        :      0.000u      0.000s      0.000w     12 calls
| JK: JK                            :      0.000u      0.000s      0.000w     12 calls
| | PK computes JK                  :      0.000u      0.000s      0.000w     12 calls
| JK: AO2USO                        :      0.000u      0.000s      0.000w     12 calls
HF: Form F                          :      0.000u      0.000s      0.000w     12 calls
HF: Form D                          :      0.000u      0.000s      0.000w     12 calls
HF: DIIS                            :      0.117u      0.067s      0.180w     11 calls
HF: Form C                          :      0.000u      0.000s      0.001w     11 calls
Libint2ERI::Libint2ERI              :      0.000u      0.000s      0.001w      1 calls

**************************************************************************************
