
Host: edffa012d021

Timers On : Fri Oct 18 05:04:03 2024
Timers Off: Fri Oct 18 05:04:03 2024

Wall Time:        0.63 seconds

                                                       Time (seconds)
Module                                       User      System        Wall        Calls

--------------------------------------------------------------------------------------

**************************************************************************************

Host: edffa012d021

Timers On : Fri Oct 18 05:05:06 2024
Timers Off: Fri Oct 18 05:05:08 2024

Wall Time:        1.92 seconds

                                                       Time (seconds)
Module                                       User      System        Wall        Calls
Total PK formation time             :      0.033u      0.267s      0.227w      1 calls
Libint2ERI::Libint2ERI              :      0.017u      0.300s      0.235w      3 calls
HF: Form core H                     :      0.000u      0.000s      0.013w      1 calls
HF: Form S/X                        :      0.000u      0.000s      0.001w      1 calls
HF: Guess                           :      0.033u      0.150s      0.124w      1 calls
SAD Guess                           :      0.033u      0.150s      0.123w      1 calls
HF: Form G                          :      0.000u      0.000s      0.001w     15 calls
JK: D                               :      0.000u      0.000s      0.000w     15 calls
JK: USO2AO                          :      0.000u      0.000s      0.000w     15 calls
JK: JK                              :      0.000u      0.000s      0.001w     15 calls
PK computes JK                      :      0.000u      0.000s      0.001w     15 calls
JK: AO2USO                          :      0.000u      0.000s      0.000w     15 calls
HF: Form F                          :      0.000u      0.000s      0.000w     15 calls
HF: Form D                          :      0.000u      0.000s      0.000w     15 calls
HF: DIIS                            :      1.567u      0.333s      0.684w     14 calls
HF: Form C                          :      0.000u      0.000s      0.003w     14 calls

--------------------------------------------------------------------------------------
Total PK formation time             :      0.033u      0.267s      0.227w      1 calls
| Libint2ERI::Libint2ERI            :      0.017u      0.250s      0.204w      2 calls
HF: Form core H                     :      0.000u      0.000s      0.013w      1 calls
HF: Form S/X                        :      0.000u      0.000s      0.001w      1 calls
HF: Guess                           :      0.033u      0.150s      0.124w      1 calls
| SAD Guess                         :      0.033u      0.150s      0.123w      1 calls
HF: Form G                          :      0.000u      0.000s      0.001w     15 calls
| JK: D                             :      0.000u      0.000s      0.000w     15 calls
| JK: USO2AO                        :      0.000u      0.000s      0.000w     15 calls
| JK: JK                            :      0.000u      0.000s      0.001w     15 calls
| | PK computes JK                  :      0.000u      0.000s      0.001w     15 calls
| JK: AO2USO                        :      0.000u      0.000s      0.000w     15 calls
HF: Form F                          :      0.000u      0.000s      0.000w     15 calls
HF: Form D                          :      0.000u      0.000s      0.000w     15 calls
HF: DIIS                            :      1.567u      0.333s      0.684w     14 calls
HF: Form C                          :      0.000u      0.000s      0.003w     14 calls
Libint2ERI::Libint2ERI              :      0.000u      0.050s      0.032w      1 calls

**************************************************************************************

Host: edffa012d021

Timers On : Fri Oct 18 05:06:36 2024
Timers Off: Fri Oct 18 05:06:37 2024

Wall Time:        0.91 seconds

                                                       Time (seconds)
Module                                       User      System        Wall        Calls
Total PK formation time             :      0.017u      0.033s      0.049w      1 calls
Libint2ERI::Libint2ERI              :      0.000u      0.033s      0.045w      3 calls
HF: Form core H                     :      0.000u      0.000s      0.004w      1 calls
HF: Form S/X                        :      0.000u      0.017s      0.000w      1 calls
HF: Guess                           :      0.017u      0.000s      0.021w      1 calls
SAD Guess                           :      0.017u      0.000s      0.020w      1 calls
HF: Form G                          :      0.000u      0.000s      0.001w     15 calls
JK: D                               :      0.000u      0.000s      0.000w     15 calls
JK: USO2AO                          :      0.000u      0.000s      0.000w     15 calls
JK: JK                              :      0.000u      0.000s      0.001w     15 calls
PK computes JK                      :      0.000u      0.000s      0.001w     15 calls
JK: AO2USO                          :      0.000u      0.000s      0.000w     15 calls
HF: Form F                          :      0.000u      0.000s      0.000w     15 calls
HF: Form D                          :      0.000u      0.000s      0.000w     15 calls
HF: DIIS                            :      1.483u      0.033s      0.117w     14 calls
HF: Form C                          :      0.000u      0.000s      0.003w     14 calls

--------------------------------------------------------------------------------------
Total PK formation time             :      0.017u      0.033s      0.049w      1 calls
| Libint2ERI::Libint2ERI            :      0.000u      0.017s      0.039w      2 calls
HF: Form core H                     :      0.000u      0.000s      0.004w      1 calls
HF: Form S/X                        :      0.000u      0.017s      0.000w      1 calls
HF: Guess                           :      0.017u      0.000s      0.021w      1 calls
| SAD Guess                         :      0.017u      0.000s      0.020w      1 calls
HF: Form G                          :      0.000u      0.000s      0.001w     15 calls
| JK: D                             :      0.000u      0.000s      0.000w     15 calls
| JK: USO2AO                        :      0.000u      0.000s      0.000w     15 calls
| JK: JK                            :      0.000u      0.000s      0.001w     15 calls
| | PK computes JK                  :      0.000u      0.000s      0.001w     15 calls
| JK: AO2USO                        :      0.000u      0.000s      0.000w     15 calls
HF: Form F                          :      0.000u      0.000s      0.000w     15 calls
HF: Form D                          :      0.000u      0.000s      0.000w     15 calls
HF: DIIS                            :      1.483u      0.033s      0.117w     14 calls
HF: Form C                          :      0.000u      0.000s      0.003w     14 calls
Libint2ERI::Libint2ERI              :      0.000u      0.017s      0.006w      1 calls

**************************************************************************************

Host: edffa012d021

Timers On : Fri Oct 18 05:46:23 2024
Timers Off: Fri Oct 18 05:46:24 2024

Wall Time:        0.94 seconds

                                                       Time (seconds)
Module                                       User      System        Wall        Calls
Total PK formation time             :      0.017u      0.033s      0.038w      1 calls
Libint2ERI::Libint2ERI              :      0.017u      0.083s      0.059w      3 calls
HF: Form core H                     :      0.000u      0.000s      0.003w      1 calls
HF: Form S/X                        :      0.000u      0.000s      0.000w      1 calls
HF: Guess                           :      0.033u      0.000s      0.018w      1 calls
SAD Guess                           :      0.033u      0.000s      0.017w      1 calls
HF: Form G                          :      0.000u      0.000s      0.001w     15 calls
JK: D                               :      0.000u      0.000s      0.000w     15 calls
JK: USO2AO                          :      0.000u      0.000s      0.000w     15 calls
JK: JK                              :      0.000u      0.000s      0.001w     15 calls
PK computes JK                      :      0.000u      0.000s      0.001w     15 calls
JK: AO2USO                          :      0.000u      0.000s      0.000w     15 calls
HF: Form F                          :      0.000u      0.000s      0.000w     15 calls
HF: Form D                          :      0.000u      0.000s      0.000w     15 calls
HF: DIIS                            :      1.450u      0.050s      0.123w     14 calls
HF: Form C                          :      0.000u      0.000s      0.003w     14 calls

--------------------------------------------------------------------------------------
Total PK formation time             :      0.017u      0.033s      0.038w      1 calls
| Libint2ERI::Libint2ERI            :      0.017u      0.033s      0.028w      2 calls
HF: Form core H                     :      0.000u      0.000s      0.003w      1 calls
HF: Form S/X                        :      0.000u      0.000s      0.000w      1 calls
HF: Guess                           :      0.033u      0.000s      0.018w      1 calls
| SAD Guess                         :      0.033u      0.000s      0.017w      1 calls
HF: Form G                          :      0.000u      0.000s      0.001w     15 calls
| JK: D                             :      0.000u      0.000s      0.000w     15 calls
| JK: USO2AO                        :      0.000u      0.000s      0.000w     15 calls
| JK: JK                            :      0.000u      0.000s      0.001w     15 calls
| | PK computes JK                  :      0.000u      0.000s      0.001w     15 calls
| JK: AO2USO                        :      0.000u      0.000s      0.000w     15 calls
HF: Form F                          :      0.000u      0.000s      0.000w     15 calls
HF: Form D                          :      0.000u      0.000s      0.000w     15 calls
HF: DIIS                            :      1.450u      0.050s      0.123w     14 calls
HF: Form C                          :      0.000u      0.000s      0.003w     14 calls
Libint2ERI::Libint2ERI              :      0.000u      0.050s      0.031w      1 calls

**************************************************************************************

Host: edffa012d021

Timers On : Fri Oct 18 06:06:00 2024
Timers Off: Fri Oct 18 06:06:01 2024

Wall Time:        0.88 seconds

                                                       Time (seconds)
Module                                       User      System        Wall        Calls
Total PK formation time             :      0.033u      0.050s      0.043w      1 calls
Libint2ERI::Libint2ERI              :      0.000u      0.017s      0.035w      3 calls
HF: Form core H                     :      0.000u      0.000s      0.006w      1 calls
HF: Form S/X                        :      0.000u      0.000s      0.000w      1 calls
HF: Guess                           :      0.017u      0.000s      0.020w      1 calls
SAD Guess                           :      0.017u      0.000s      0.020w      1 calls
HF: Form G                          :      0.000u      0.000s      0.001w     15 calls
JK: D                               :      0.000u      0.000s      0.000w     15 calls
JK: USO2AO                          :      0.000u      0.000s      0.000w     15 calls
JK: JK                              :      0.000u      0.000s      0.001w     15 calls
PK computes JK                      :      0.000u      0.000s      0.001w     15 calls
JK: AO2USO                          :      0.000u      0.000s      0.000w     15 calls
HF: Form F                          :      0.000u      0.000s      0.000w     15 calls
HF: Form D                          :      0.000u      0.000s      0.000w     15 calls
HF: DIIS                            :      1.450u      0.033s      0.113w     14 calls
HF: Form C                          :      0.017u      0.000s      0.003w     14 calls

--------------------------------------------------------------------------------------
Total PK formation time             :      0.033u      0.050s      0.043w      1 calls
| Libint2ERI::Libint2ERI            :      0.000u      0.017s      0.029w      2 calls
HF: Form core H                     :      0.000u      0.000s      0.006w      1 calls
HF: Form S/X                        :      0.000u      0.000s      0.000w      1 calls
HF: Guess                           :      0.017u      0.000s      0.020w      1 calls
| SAD Guess                         :      0.017u      0.000s      0.020w      1 calls
HF: Form G                          :      0.000u      0.000s      0.001w     15 calls
| JK: D                             :      0.000u      0.000s      0.000w     15 calls
| JK: USO2AO                        :      0.000u      0.000s      0.000w     15 calls
| JK: JK                            :      0.000u      0.000s      0.001w     15 calls
| | PK computes JK                  :      0.000u      0.000s      0.001w     15 calls
| JK: AO2USO                        :      0.000u      0.000s      0.000w     15 calls
HF: Form F                          :      0.000u      0.000s      0.000w     15 calls
HF: Form D                          :      0.000u      0.000s      0.000w     15 calls
HF: DIIS                            :      1.450u      0.033s      0.113w     14 calls
HF: Form C                          :      0.017u      0.000s      0.003w     14 calls
Libint2ERI::Libint2ERI              :      0.000u      0.000s      0.006w      1 calls

**************************************************************************************

Host: f69874473de5

Timers On : Mon Nov  4 07:08:40 2024
Timers Off: Mon Nov  4 07:08:41 2024

Wall Time:        1.21 seconds

                                                       Time (seconds)
Module                                       User      System        Wall        Calls
Total PK formation time             :      0.017u      0.200s      0.148w      1 calls
Libint2ERI::Libint2ERI              :      0.000u      0.200s      0.131w      2 calls
HF: Form core H                     :      0.000u      0.000s      0.005w      1 calls
HF: Form S/X                        :      0.000u      0.000s      0.000w      1 calls
HF: Guess                           :      0.033u      0.000s      0.021w      1 calls
SAD Guess                           :      0.033u      0.000s      0.021w      1 calls
HF: Form G                          :      0.000u      0.000s      0.001w     15 calls
JK: D                               :      0.000u      0.000s      0.000w     15 calls
JK: USO2AO                          :      0.000u      0.000s      0.000w     15 calls
JK: JK                              :      0.000u      0.000s      0.001w     15 calls
PK computes JK                      :      0.000u      0.000s      0.001w     15 calls
JK: AO2USO                          :      0.000u      0.000s      0.000w     15 calls
HF: Form F                          :      0.000u      0.000s      0.000w     15 calls
HF: Form D                          :      0.000u      0.000s      0.000w     15 calls
HF: DIIS                            :      1.500u      0.183s      0.248w     14 calls
HF: Form C                          :      0.000u      0.000s      0.003w     14 calls

--------------------------------------------------------------------------------------
Total PK formation time             :      0.017u      0.200s      0.148w      1 calls
| Libint2ERI::Libint2ERI            :      0.000u      0.200s      0.131w      2 calls
HF: Form core H                     :      0.000u      0.000s      0.005w      1 calls
HF: Form S/X                        :      0.000u      0.000s      0.000w      1 calls
HF: Guess                           :      0.033u      0.000s      0.021w      1 calls
| SAD Guess                         :      0.033u      0.000s      0.021w      1 calls
HF: Form G                          :      0.000u      0.000s      0.001w     15 calls
| JK: D                             :      0.000u      0.000s      0.000w     15 calls
| JK: USO2AO                        :      0.000u      0.000s      0.000w     15 calls
| JK: JK                            :      0.000u      0.000s      0.001w     15 calls
| | PK computes JK                  :      0.000u      0.000s      0.001w     15 calls
| JK: AO2USO                        :      0.000u      0.000s      0.000w     15 calls
HF: Form F                          :      0.000u      0.000s      0.000w     15 calls
HF: Form D                          :      0.000u      0.000s      0.000w     15 calls
HF: DIIS                            :      1.500u      0.183s      0.248w     14 calls
HF: Form C                          :      0.000u      0.000s      0.003w     14 calls

**************************************************************************************

Host: f69874473de5

Timers On : Mon Nov  4 07:35:02 2024
Timers Off: Mon Nov  4 07:35:02 2024

Wall Time:        0.76 seconds

                                                       Time (seconds)
Module                                       User      System        Wall        Calls
Total PK formation time             :      0.017u      0.050s      0.057w      1 calls
Libint2ERI::Libint2ERI              :      0.000u      0.050s      0.047w      2 calls
HF: Form core H                     :      0.000u      0.000s      0.004w      1 calls
HF: Form S/X                        :      0.000u      0.000s      0.000w      1 calls
HF: Guess                           :      0.017u      0.000s      0.020w      1 calls
SAD Guess                           :      0.017u      0.000s      0.019w      1 calls
HF: Form G                          :      0.000u      0.000s      0.001w     15 calls
JK: D                               :      0.000u      0.000s      0.000w     15 calls
JK: USO2AO                          :      0.000u      0.000s      0.000w     15 calls
JK: JK                              :      0.000u      0.000s      0.001w     15 calls
PK computes JK                      :      0.000u      0.000s      0.001w     15 calls
JK: AO2USO                          :      0.000u      0.000s      0.000w     15 calls
HF: Form F                          :      0.000u      0.000s      0.000w     15 calls
HF: Form D                          :      0.000u      0.000s      0.000w     15 calls
HF: DIIS                            :      1.500u      0.033s      0.128w     14 calls
HF: Form C                          :      0.000u      0.000s      0.003w     14 calls

--------------------------------------------------------------------------------------
Total PK formation time             :      0.017u      0.050s      0.057w      1 calls
| Libint2ERI::Libint2ERI            :      0.000u      0.050s      0.047w      2 calls
HF: Form core H                     :      0.000u      0.000s      0.004w      1 calls
HF: Form S/X                        :      0.000u      0.000s      0.000w      1 calls
HF: Guess                           :      0.017u      0.000s      0.020w      1 calls
| SAD Guess                         :      0.017u      0.000s      0.019w      1 calls
HF: Form G                          :      0.000u      0.000s      0.001w     15 calls
| JK: D                             :      0.000u      0.000s      0.000w     15 calls
| JK: USO2AO                        :      0.000u      0.000s      0.000w     15 calls
| JK: JK                            :      0.000u      0.000s      0.001w     15 calls
| | PK computes JK                  :      0.000u      0.000s      0.001w     15 calls
| JK: AO2USO                        :      0.000u      0.000s      0.000w     15 calls
HF: Form F                          :      0.000u      0.000s      0.000w     15 calls
HF: Form D                          :      0.000u      0.000s      0.000w     15 calls
HF: DIIS                            :      1.500u      0.033s      0.128w     14 calls
HF: Form C                          :      0.000u      0.000s      0.003w     14 calls

**************************************************************************************

Host: f69874473de5

Timers On : Mon Nov  4 07:37:26 2024
Timers Off: Mon Nov  4 07:37:27 2024

Wall Time:        0.74 seconds

                                                       Time (seconds)
Module                                       User      System        Wall        Calls
Total PK formation time             :      0.017u      0.050s      0.040w      1 calls
Libint2ERI::Libint2ERI              :      0.000u      0.050s      0.030w      2 calls
HF: Form core H                     :      0.000u      0.000s      0.004w      1 calls
HF: Form S/X                        :      0.000u      0.000s      0.000w      1 calls
HF: Guess                           :      0.017u      0.000s      0.019w      1 calls
SAD Guess                           :      0.017u      0.000s      0.019w      1 calls
HF: Form G                          :      0.000u      0.000s      0.001w     15 calls
JK: D                               :      0.000u      0.000s      0.000w     15 calls
JK: USO2AO                          :      0.000u      0.000s      0.000w     15 calls
JK: JK                              :      0.000u      0.000s      0.001w     15 calls
PK computes JK                      :      0.000u      0.000s      0.001w     15 calls
JK: AO2USO                          :      0.000u      0.000s      0.000w     15 calls
HF: Form F                          :      0.000u      0.000s      0.000w     15 calls
HF: Form D                          :      0.000u      0.000s      0.000w     15 calls
HF: DIIS                            :      1.517u      0.017s      0.121w     14 calls
HF: Form C                          :      0.000u      0.000s      0.003w     14 calls

--------------------------------------------------------------------------------------
Total PK formation time             :      0.017u      0.050s      0.040w      1 calls
| Libint2ERI::Libint2ERI            :      0.000u      0.050s      0.030w      2 calls
HF: Form core H                     :      0.000u      0.000s      0.004w      1 calls
HF: Form S/X                        :      0.000u      0.000s      0.000w      1 calls
HF: Guess                           :      0.017u      0.000s      0.019w      1 calls
| SAD Guess                         :      0.017u      0.000s      0.019w      1 calls
HF: Form G                          :      0.000u      0.000s      0.001w     15 calls
| JK: D                             :      0.000u      0.000s      0.000w     15 calls
| JK: USO2AO                        :      0.000u      0.000s      0.000w     15 calls
| JK: JK                            :      0.000u      0.000s      0.001w     15 calls
| | PK computes JK                  :      0.000u      0.000s      0.001w     15 calls
| JK: AO2USO                        :      0.000u      0.000s      0.000w     15 calls
HF: Form F                          :      0.000u      0.000s      0.000w     15 calls
HF: Form D                          :      0.000u      0.000s      0.000w     15 calls
HF: DIIS                            :      1.517u      0.017s      0.121w     14 calls
HF: Form C                          :      0.000u      0.000s      0.003w     14 calls

**************************************************************************************

Host: f69874473de5

Timers On : Mon Nov  4 07:37:45 2024
Timers Off: Mon Nov  4 07:37:46 2024

Wall Time:        0.69 seconds

                                                       Time (seconds)
Module                                       User      System        Wall        Calls
Total PK formation time             :      0.017u      0.017s      0.029w      1 calls
Libint2ERI::Libint2ERI              :      0.000u      0.017s      0.019w      2 calls
HF: Form core H                     :      0.000u      0.000s      0.003w      1 calls
HF: Form S/X                        :      0.017u      0.000s      0.000w      1 calls
HF: Guess                           :      0.017u      0.000s      0.018w      1 calls
SAD Guess                           :      0.017u      0.000s      0.017w      1 calls
HF: Form G                          :      0.000u      0.000s      0.001w     15 calls
JK: D                               :      0.000u      0.000s      0.000w     15 calls
JK: USO2AO                          :      0.000u      0.000s      0.000w     15 calls
JK: JK                              :      0.000u      0.000s      0.001w     15 calls
PK computes JK                      :      0.000u      0.000s      0.001w     15 calls
JK: AO2USO                          :      0.000u      0.000s      0.000w     15 calls
HF: Form F                          :      0.000u      0.000s      0.000w     15 calls
HF: Form D                          :      0.000u      0.000s      0.000w     15 calls
HF: DIIS                            :      1.483u      0.017s      0.115w     14 calls
HF: Form C                          :      0.017u      0.000s      0.003w     14 calls

--------------------------------------------------------------------------------------
Total PK formation time             :      0.017u      0.017s      0.029w      1 calls
| Libint2ERI::Libint2ERI            :      0.000u      0.017s      0.019w      2 calls
HF: Form core H                     :      0.000u      0.000s      0.003w      1 calls
HF: Form S/X                        :      0.017u      0.000s      0.000w      1 calls
HF: Guess                           :      0.017u      0.000s      0.018w      1 calls
| SAD Guess                         :      0.017u      0.000s      0.017w      1 calls
HF: Form G                          :      0.000u      0.000s      0.001w     15 calls
| JK: D                             :      0.000u      0.000s      0.000w     15 calls
| JK: USO2AO                        :      0.000u      0.000s      0.000w     15 calls
| JK: JK                            :      0.000u      0.000s      0.001w     15 calls
| | PK computes JK                  :      0.000u      0.000s      0.001w     15 calls
| JK: AO2USO                        :      0.000u      0.000s      0.000w     15 calls
HF: Form F                          :      0.000u      0.000s      0.000w     15 calls
HF: Form D                          :      0.000u      0.000s      0.000w     15 calls
HF: DIIS                            :      1.483u      0.017s      0.115w     14 calls
HF: Form C                          :      0.017u      0.000s      0.003w     14 calls

**************************************************************************************

Host: f69874473de5

Timers On : Mon Nov  4 07:39:44 2024
Timers Off: Mon Nov  4 07:39:44 2024

Wall Time:        0.76 seconds

                                                       Time (seconds)
Module                                       User      System        Wall        Calls
Total PK formation time             :      0.017u      0.050s      0.046w      1 calls
Libint2ERI::Libint2ERI              :      0.017u      0.033s      0.036w      2 calls
HF: Form core H                     :      0.000u      0.000s      0.004w      1 calls
HF: Form S/X                        :      0.000u      0.000s      0.000w      1 calls
HF: Guess                           :      0.033u      0.000s      0.020w      1 calls
SAD Guess                           :      0.033u      0.000s      0.019w      1 calls
HF: Form G                          :      0.000u      0.000s      0.001w     15 calls
JK: D                               :      0.000u      0.000s      0.000w     15 calls
JK: USO2AO                          :      0.000u      0.000s      0.000w     15 calls
JK: JK                              :      0.000u      0.000s      0.001w     15 calls
PK computes JK                      :      0.000u      0.000s      0.001w     15 calls
JK: AO2USO                          :      0.000u      0.000s      0.000w     15 calls
HF: Form F                          :      0.000u      0.000s      0.000w     15 calls
HF: Form D                          :      0.000u      0.000s      0.000w     15 calls
HF: DIIS                            :      1.467u      0.067s      0.144w     14 calls
HF: Form C                          :      0.000u      0.000s      0.003w     14 calls

--------------------------------------------------------------------------------------
Total PK formation time             :      0.017u      0.050s      0.046w      1 calls
| Libint2ERI::Libint2ERI            :      0.017u      0.033s      0.036w      2 calls
HF: Form core H                     :      0.000u      0.000s      0.004w      1 calls
HF: Form S/X                        :      0.000u      0.000s      0.000w      1 calls
HF: Guess                           :      0.033u      0.000s      0.020w      1 calls
| SAD Guess                         :      0.033u      0.000s      0.019w      1 calls
HF: Form G                          :      0.000u      0.000s      0.001w     15 calls
| JK: D                             :      0.000u      0.000s      0.000w     15 calls
| JK: USO2AO                        :      0.000u      0.000s      0.000w     15 calls
| JK: JK                            :      0.000u      0.000s      0.001w     15 calls
| | PK computes JK                  :      0.000u      0.000s      0.001w     15 calls
| JK: AO2USO                        :      0.000u      0.000s      0.000w     15 calls
HF: Form F                          :      0.000u      0.000s      0.000w     15 calls
HF: Form D                          :      0.000u      0.000s      0.000w     15 calls
HF: DIIS                            :      1.467u      0.067s      0.144w     14 calls
HF: Form C                          :      0.000u      0.000s      0.003w     14 calls

**************************************************************************************

Host: f69874473de5

Timers On : Mon Nov  4 07:44:29 2024
Timers Off: Mon Nov  4 07:44:29 2024

Wall Time:        0.73 seconds

                                                       Time (seconds)
Module                                       User      System        Wall        Calls
Total PK formation time             :      0.017u      0.017s      0.047w      1 calls
Libint2ERI::Libint2ERI              :      0.017u      0.017s      0.037w      2 calls
HF: Form core H                     :      0.000u      0.000s      0.004w      1 calls
HF: Form S/X                        :      0.000u      0.000s      0.000w      1 calls
HF: Guess                           :      0.033u      0.017s      0.020w      1 calls
SAD Guess                           :      0.017u      0.017s      0.019w      1 calls
HF: Form G                          :      0.000u      0.000s      0.001w     15 calls
JK: D                               :      0.000u      0.000s      0.000w     15 calls
JK: USO2AO                          :      0.000u      0.000s      0.000w     15 calls
JK: JK                              :      0.000u      0.000s      0.001w     15 calls
PK computes JK                      :      0.000u      0.000s      0.001w     15 calls
JK: AO2USO                          :      0.000u      0.000s      0.000w     15 calls
HF: Form F                          :      0.000u      0.000s      0.000w     15 calls
HF: Form D                          :      0.000u      0.000s      0.000w     15 calls
HF: DIIS                            :      1.467u      0.050s      0.122w     14 calls
HF: Form C                          :      0.000u      0.000s      0.003w     14 calls

--------------------------------------------------------------------------------------
Total PK formation time             :      0.017u      0.017s      0.047w      1 calls
| Libint2ERI::Libint2ERI            :      0.017u      0.017s      0.037w      2 calls
HF: Form core H                     :      0.000u      0.000s      0.004w      1 calls
HF: Form S/X                        :      0.000u      0.000s      0.000w      1 calls
HF: Guess                           :      0.033u      0.017s      0.020w      1 calls
| SAD Guess                         :      0.017u      0.017s      0.019w      1 calls
HF: Form G                          :      0.000u      0.000s      0.001w     15 calls
| JK: D                             :      0.000u      0.000s      0.000w     15 calls
| JK: USO2AO                        :      0.000u      0.000s      0.000w     15 calls
| JK: JK                            :      0.000u      0.000s      0.001w     15 calls
| | PK computes JK                  :      0.000u      0.000s      0.001w     15 calls
| JK: AO2USO                        :      0.000u      0.000s      0.000w     15 calls
HF: Form F                          :      0.000u      0.000s      0.000w     15 calls
HF: Form D                          :      0.000u      0.000s      0.000w     15 calls
HF: DIIS                            :      1.467u      0.050s      0.122w     14 calls
HF: Form C                          :      0.000u      0.000s      0.003w     14 calls

**************************************************************************************

Host: f69874473de5

Timers On : Mon Nov  4 07:44:46 2024
Timers Off: Mon Nov  4 07:44:47 2024

Wall Time:        0.61 seconds

                                                       Time (seconds)
Module                                       User      System        Wall        Calls
Total PK formation time             :      0.017u      0.017s      0.023w      1 calls
Libint2ERI::Libint2ERI              :      0.000u      0.017s      0.014w      2 calls
HF: Form core H                     :      0.000u      0.000s      0.003w      1 calls
HF: Form S/X                        :      0.000u      0.000s      0.000w      1 calls
HF: Guess                           :      0.033u      0.000s      0.017w      1 calls
SAD Guess                           :      0.033u      0.000s      0.016w      1 calls
HF: Form G                          :      0.000u      0.000s      0.001w     15 calls
JK: D                               :      0.000u      0.000s      0.000w     15 calls
JK: USO2AO                          :      0.000u      0.000s      0.000w     15 calls
JK: JK                              :      0.000u      0.000s      0.001w     15 calls
PK computes JK                      :      0.000u      0.000s      0.001w     15 calls
JK: AO2USO                          :      0.000u      0.000s      0.000w     15 calls
HF: Form F                          :      0.017u      0.000s      0.000w     15 calls
HF: Form D                          :      0.000u      0.000s      0.000w     15 calls
HF: DIIS                            :      1.400u      0.017s      0.108w     14 calls
HF: Form C                          :      0.017u      0.000s      0.003w     14 calls

--------------------------------------------------------------------------------------
Total PK formation time             :      0.017u      0.017s      0.023w      1 calls
| Libint2ERI::Libint2ERI            :      0.000u      0.017s      0.014w      2 calls
HF: Form core H                     :      0.000u      0.000s      0.003w      1 calls
HF: Form S/X                        :      0.000u      0.000s      0.000w      1 calls
HF: Guess                           :      0.033u      0.000s      0.017w      1 calls
| SAD Guess                         :      0.033u      0.000s      0.016w      1 calls
HF: Form G                          :      0.000u      0.000s      0.001w     15 calls
| JK: D                             :      0.000u      0.000s      0.000w     15 calls
| JK: USO2AO                        :      0.000u      0.000s      0.000w     15 calls
| JK: JK                            :      0.000u      0.000s      0.001w     15 calls
| | PK computes JK                  :      0.000u      0.000s      0.001w     15 calls
| JK: AO2USO                        :      0.000u      0.000s      0.000w     15 calls
HF: Form F                          :      0.017u      0.000s      0.000w     15 calls
HF: Form D                          :      0.000u      0.000s      0.000w     15 calls
HF: DIIS                            :      1.400u      0.017s      0.108w     14 calls
HF: Form C                          :      0.017u      0.000s      0.003w     14 calls

**************************************************************************************

Host: f69874473de5

Timers On : Mon Nov  4 07:45:48 2024
Timers Off: Mon Nov  4 07:45:49 2024

Wall Time:        0.71 seconds

                                                       Time (seconds)
Module                                       User      System        Wall        Calls
Total PK formation time             :      0.017u      0.033s      0.038w      1 calls
Libint2ERI::Libint2ERI              :      0.000u      0.033s      0.027w      2 calls
HF: Form core H                     :      0.000u      0.000s      0.003w      1 calls
HF: Form S/X                        :      0.000u      0.000s      0.000w      1 calls
HF: Guess                           :      0.017u      0.017s      0.026w      1 calls
SAD Guess                           :      0.017u      0.017s      0.026w      1 calls
HF: Form G                          :      0.017u      0.000s      0.001w     15 calls
JK: D                               :      0.000u      0.000s      0.000w     15 calls
JK: USO2AO                          :      0.000u      0.000s      0.000w     15 calls
JK: JK                              :      0.017u      0.000s      0.001w     15 calls
PK computes JK                      :      0.017u      0.000s      0.001w     15 calls
JK: AO2USO                          :      0.000u      0.000s      0.000w     15 calls
HF: Form F                          :      0.000u      0.000s      0.000w     15 calls
HF: Form D                          :      0.000u      0.000s      0.000w     15 calls
HF: DIIS                            :      1.467u      0.017s      0.116w     14 calls
HF: Form C                          :      0.000u      0.000s      0.003w     14 calls

--------------------------------------------------------------------------------------
Total PK formation time             :      0.017u      0.033s      0.038w      1 calls
| Libint2ERI::Libint2ERI            :      0.000u      0.033s      0.027w      2 calls
HF: Form core H                     :      0.000u      0.000s      0.003w      1 calls
HF: Form S/X                        :      0.000u      0.000s      0.000w      1 calls
HF: Guess                           :      0.017u      0.017s      0.026w      1 calls
| SAD Guess                         :      0.017u      0.017s      0.026w      1 calls
HF: Form G                          :      0.017u      0.000s      0.001w     15 calls
| JK: D                             :      0.000u      0.000s      0.000w     15 calls
| JK: USO2AO                        :      0.000u      0.000s      0.000w     15 calls
| JK: JK                            :      0.017u      0.000s      0.001w     15 calls
| | PK computes JK                  :      0.017u      0.000s      0.001w     15 calls
| JK: AO2USO                        :      0.000u      0.000s      0.000w     15 calls
HF: Form F                          :      0.000u      0.000s      0.000w     15 calls
HF: Form D                          :      0.000u      0.000s      0.000w     15 calls
HF: DIIS                            :      1.467u      0.017s      0.116w     14 calls
HF: Form C                          :      0.000u      0.000s      0.003w     14 calls

**************************************************************************************

Host: f69874473de5

Timers On : Mon Nov  4 16:51:18 2024
Timers Off: Mon Nov  4 16:51:19 2024

Wall Time:        0.78 seconds

                                                       Time (seconds)
Module                                       User      System        Wall        Calls
Total PK formation time             :      0.033u      0.033s      0.052w      1 calls
Libint2ERI::Libint2ERI              :      0.017u      0.017s      0.041w      2 calls
HF: Form core H                     :      0.000u      0.000s      0.004w      1 calls
HF: Form S/X                        :      0.000u      0.000s      0.000w      1 calls
HF: Guess                           :      0.017u      0.017s      0.020w      1 calls
SAD Guess                           :      0.017u      0.017s      0.019w      1 calls
HF: Form G                          :      0.000u      0.000s      0.001w     15 calls
JK: D                               :      0.000u      0.000s      0.000w     15 calls
JK: USO2AO                          :      0.000u      0.000s      0.000w     15 calls
JK: JK                              :      0.000u      0.000s      0.001w     15 calls
PK computes JK                      :      0.000u      0.000s      0.001w     15 calls
JK: AO2USO                          :      0.000u      0.000s      0.000w     15 calls
HF: Form F                          :      0.000u      0.000s      0.000w     15 calls
HF: Form D                          :      0.000u      0.000s      0.000w     15 calls
HF: DIIS                            :      1.467u      0.017s      0.117w     14 calls
HF: Form C                          :      0.000u      0.000s      0.003w     14 calls

--------------------------------------------------------------------------------------
Total PK formation time             :      0.033u      0.033s      0.052w      1 calls
| Libint2ERI::Libint2ERI            :      0.017u      0.017s      0.041w      2 calls
HF: Form core H                     :      0.000u      0.000s      0.004w      1 calls
HF: Form S/X                        :      0.000u      0.000s      0.000w      1 calls
HF: Guess                           :      0.017u      0.017s      0.020w      1 calls
| SAD Guess                         :      0.017u      0.017s      0.019w      1 calls
HF: Form G                          :      0.000u      0.000s      0.001w     15 calls
| JK: D                             :      0.000u      0.000s      0.000w     15 calls
| JK: USO2AO                        :      0.000u      0.000s      0.000w     15 calls
| JK: JK                            :      0.000u      0.000s      0.001w     15 calls
| | PK computes JK                  :      0.000u      0.000s      0.001w     15 calls
| JK: AO2USO                        :      0.000u      0.000s      0.000w     15 calls
HF: Form F                          :      0.000u      0.000s      0.000w     15 calls
HF: Form D                          :      0.000u      0.000s      0.000w     15 calls
HF: DIIS                            :      1.467u      0.017s      0.117w     14 calls
HF: Form C                          :      0.000u      0.000s      0.003w     14 calls

**************************************************************************************

Host: 025c94e031ec

Timers On : Mon Nov  4 17:02:15 2024
Timers Off: Mon Nov  4 17:02:16 2024

Wall Time:        0.89 seconds

                                                       Time (seconds)
Module                                       User      System        Wall        Calls
Total PK formation time             :      0.017u      0.050s      0.054w      1 calls
Libint2ERI::Libint2ERI              :      0.000u      0.083s      0.064w      3 calls
HF: Form core H                     :      0.000u      0.000s      0.003w      1 calls
HF: Form S/X                        :      0.000u      0.000s      0.000w      1 calls
HF: Guess                           :      0.033u      0.033s      0.031w      1 calls
SAD Guess                           :      0.033u      0.033s      0.031w      1 calls
HF: Form G                          :      0.000u      0.000s      0.001w     15 calls
JK: D                               :      0.000u      0.000s      0.000w     15 calls
JK: USO2AO                          :      0.000u      0.000s      0.000w     15 calls
JK: JK                              :      0.000u      0.000s      0.001w     15 calls
PK computes JK                      :      0.000u      0.000s      0.001w     15 calls
JK: AO2USO                          :      0.000u      0.000s      0.000w     15 calls
HF: Form F                          :      0.000u      0.000s      0.000w     15 calls
HF: Form D                          :      0.000u      0.000s      0.000w     15 calls
HF: DIIS                            :      1.483u      0.100s      0.163w     14 calls
HF: Form C                          :      0.000u      0.000s      0.003w     14 calls

--------------------------------------------------------------------------------------
Total PK formation time             :      0.017u      0.050s      0.054w      1 calls
| Libint2ERI::Libint2ERI            :      0.000u      0.050s      0.044w      2 calls
HF: Form core H                     :      0.000u      0.000s      0.003w      1 calls
HF: Form S/X                        :      0.000u      0.000s      0.000w      1 calls
HF: Guess                           :      0.033u      0.033s      0.031w      1 calls
| SAD Guess                         :      0.033u      0.033s      0.031w      1 calls
HF: Form G                          :      0.000u      0.000s      0.001w     15 calls
| JK: D                             :      0.000u      0.000s      0.000w     15 calls
| JK: USO2AO                        :      0.000u      0.000s      0.000w     15 calls
| JK: JK                            :      0.000u      0.000s      0.001w     15 calls
| | PK computes JK                  :      0.000u      0.000s      0.001w     15 calls
| JK: AO2USO                        :      0.000u      0.000s      0.000w     15 calls
HF: Form F                          :      0.000u      0.000s      0.000w     15 calls
HF: Form D                          :      0.000u      0.000s      0.000w     15 calls
HF: DIIS                            :      1.483u      0.100s      0.163w     14 calls
HF: Form C                          :      0.000u      0.000s      0.003w     14 calls
Libint2ERI::Libint2ERI              :      0.000u      0.033s      0.020w      1 calls

**************************************************************************************

Host: a303e70c7054

Timers On : Mon Nov  4 17:26:32 2024
Timers Off: Mon Nov  4 17:26:33 2024

Wall Time:        0.89 seconds

                                                       Time (seconds)
Module                                       User      System        Wall        Calls
Total PK formation time             :      0.033u      0.050s      0.049w      1 calls
Libint2ERI::Libint2ERI              :      0.000u      0.083s      0.057w      3 calls
HF: Form core H                     :      0.000u      0.000s      0.003w      1 calls
HF: Form S/X                        :      0.000u      0.000s      0.000w      1 calls
HF: Guess                           :      0.017u      0.000s      0.020w      1 calls
SAD Guess                           :      0.017u      0.000s      0.019w      1 calls
HF: Form G                          :      0.017u      0.000s      0.001w     15 calls
JK: D                               :      0.000u      0.000s      0.000w     15 calls
JK: USO2AO                          :      0.017u      0.000s      0.000w     15 calls
JK: JK                              :      0.000u      0.000s      0.001w     15 calls
PK computes JK                      :      0.000u      0.000s      0.001w     15 calls
JK: AO2USO                          :      0.000u      0.000s      0.000w     15 calls
HF: Form F                          :      0.017u      0.000s      0.000w     15 calls
HF: Form D                          :      0.000u      0.000s      0.000w     15 calls
HF: DIIS                            :      1.433u      0.100s      0.154w     14 calls
HF: Form C                          :      0.000u      0.000s      0.003w     14 calls

--------------------------------------------------------------------------------------
Total PK formation time             :      0.033u      0.050s      0.049w      1 calls
| Libint2ERI::Libint2ERI            :      0.000u      0.050s      0.037w      2 calls
HF: Form core H                     :      0.000u      0.000s      0.003w      1 calls
HF: Form S/X                        :      0.000u      0.000s      0.000w      1 calls
HF: Guess                           :      0.017u      0.000s      0.020w      1 calls
| SAD Guess                         :      0.017u      0.000s      0.019w      1 calls
HF: Form G                          :      0.017u      0.000s      0.001w     15 calls
| JK: D                             :      0.000u      0.000s      0.000w     15 calls
| JK: USO2AO                        :      0.017u      0.000s      0.000w     15 calls
| JK: JK                            :      0.000u      0.000s      0.001w     15 calls
| | PK computes JK                  :      0.000u      0.000s      0.001w     15 calls
| JK: AO2USO                        :      0.000u      0.000s      0.000w     15 calls
HF: Form F                          :      0.017u      0.000s      0.000w     15 calls
HF: Form D                          :      0.000u      0.000s      0.000w     15 calls
HF: DIIS                            :      1.433u      0.100s      0.154w     14 calls
HF: Form C                          :      0.000u      0.000s      0.003w     14 calls
Libint2ERI::Libint2ERI              :      0.000u      0.033s      0.020w      1 calls

**************************************************************************************

Host: a303e70c7054

Timers On : Mon Nov  4 17:28:23 2024
Timers Off: Mon Nov  4 17:28:24 2024

Wall Time:        0.80 seconds

                                                       Time (seconds)
Module                                       User      System        Wall        Calls
Total PK formation time             :      0.017u      0.017s      0.035w      1 calls
Libint2ERI::Libint2ERI              :      0.000u      0.000s      0.030w      3 calls
HF: Form core H                     :      0.000u      0.000s      0.004w      1 calls
HF: Form S/X                        :      0.000u      0.000s      0.000w      1 calls
HF: Guess                           :      0.017u      0.033s      0.034w      1 calls
SAD Guess                           :      0.017u      0.033s      0.033w      1 calls
HF: Form G                          :      0.017u      0.000s      0.001w     15 calls
JK: D                               :      0.000u      0.000s      0.000w     15 calls
JK: USO2AO                          :      0.000u      0.000s      0.000w     15 calls
JK: JK                              :      0.017u      0.000s      0.001w     15 calls
PK computes JK                      :      0.017u      0.000s      0.001w     15 calls
JK: AO2USO                          :      0.000u      0.000s      0.000w     15 calls
HF: Form F                          :      0.000u      0.000s      0.000w     15 calls
HF: Form D                          :      0.000u      0.000s      0.000w     15 calls
HF: DIIS                            :      1.433u      0.050s      0.123w     14 calls
HF: Form C                          :      0.000u      0.000s      0.003w     14 calls

--------------------------------------------------------------------------------------
Total PK formation time             :      0.017u      0.017s      0.035w      1 calls
| Libint2ERI::Libint2ERI            :      0.000u      0.000s      0.025w      2 calls
HF: Form core H                     :      0.000u      0.000s      0.004w      1 calls
HF: Form S/X                        :      0.000u      0.000s      0.000w      1 calls
HF: Guess                           :      0.017u      0.033s      0.034w      1 calls
| SAD Guess                         :      0.017u      0.033s      0.033w      1 calls
HF: Form G                          :      0.017u      0.000s      0.001w     15 calls
| JK: D                             :      0.000u      0.000s      0.000w     15 calls
| JK: USO2AO                        :      0.000u      0.000s      0.000w     15 calls
| JK: JK                            :      0.017u      0.000s      0.001w     15 calls
| | PK computes JK                  :      0.017u      0.000s      0.001w     15 calls
| JK: AO2USO                        :      0.000u      0.000s      0.000w     15 calls
HF: Form F                          :      0.000u      0.000s      0.000w     15 calls
HF: Form D                          :      0.000u      0.000s      0.000w     15 calls
HF: DIIS                            :      1.433u      0.050s      0.123w     14 calls
HF: Form C                          :      0.000u      0.000s      0.003w     14 calls
Libint2ERI::Libint2ERI              :      0.000u      0.000s      0.005w      1 calls

**************************************************************************************

Host: 18cce5f158b5

Timers On : Mon Nov  4 17:32:18 2024
Timers Off: Mon Nov  4 17:32:19 2024

Wall Time:        0.79 seconds

                                                       Time (seconds)
Module                                       User      System        Wall        Calls
Total PK formation time             :      0.017u      0.017s      0.034w      1 calls
Libint2ERI::Libint2ERI              :      0.000u      0.017s      0.024w      2 calls
HF: Form core H                     :      0.000u      0.000s      0.011w      1 calls
HF: Form S/X                        :      0.000u      0.000s      0.001w      1 calls
HF: Guess                           :      0.017u      0.017s      0.020w      1 calls
SAD Guess                           :      0.017u      0.017s      0.019w      1 calls
HF: Form G                          :      0.000u      0.000s      0.001w     15 calls
JK: D                               :      0.000u      0.000s      0.000w     15 calls
JK: USO2AO                          :      0.000u      0.000s      0.000w     15 calls
JK: JK                              :      0.000u      0.000s      0.001w     15 calls
PK computes JK                      :      0.000u      0.000s      0.001w     15 calls
JK: AO2USO                          :      0.000u      0.000s      0.000w     15 calls
HF: Form F                          :      0.000u      0.000s      0.000w     15 calls
HF: Form D                          :      0.000u      0.000s      0.000w     15 calls
HF: DIIS                            :      1.450u      0.083s      0.154w     14 calls
HF: Form C                          :      0.000u      0.000s      0.003w     14 calls

--------------------------------------------------------------------------------------
Total PK formation time             :      0.017u      0.017s      0.034w      1 calls
| Libint2ERI::Libint2ERI            :      0.000u      0.017s      0.024w      2 calls
HF: Form core H                     :      0.000u      0.000s      0.011w      1 calls
HF: Form S/X                        :      0.000u      0.000s      0.001w      1 calls
HF: Guess                           :      0.017u      0.017s      0.020w      1 calls
| SAD Guess                         :      0.017u      0.017s      0.019w      1 calls
HF: Form G                          :      0.000u      0.000s      0.001w     15 calls
| JK: D                             :      0.000u      0.000s      0.000w     15 calls
| JK: USO2AO                        :      0.000u      0.000s      0.000w     15 calls
| JK: JK                            :      0.000u      0.000s      0.001w     15 calls
| | PK computes JK                  :      0.000u      0.000s      0.001w     15 calls
| JK: AO2USO                        :      0.000u      0.000s      0.000w     15 calls
HF: Form F                          :      0.000u      0.000s      0.000w     15 calls
HF: Form D                          :      0.000u      0.000s      0.000w     15 calls
HF: DIIS                            :      1.450u      0.083s      0.154w     14 calls
HF: Form C                          :      0.000u      0.000s      0.003w     14 calls

**************************************************************************************

Host: 18cce5f158b5

Timers On : Mon Nov  4 17:34:28 2024
Timers Off: Mon Nov  4 17:34:29 2024

Wall Time:        0.72 seconds

                                                       Time (seconds)
Module                                       User      System        Wall        Calls
Total PK formation time             :      0.033u      0.033s      0.036w      1 calls
Libint2ERI::Libint2ERI              :      0.000u      0.033s      0.027w      2 calls
HF: Form core H                     :      0.000u      0.000s      0.004w      1 calls
HF: Form S/X                        :      0.000u      0.000s      0.000w      1 calls
HF: Guess                           :      0.017u      0.017s      0.028w      1 calls
SAD Guess                           :      0.017u      0.017s      0.027w      1 calls
HF: Form G                          :      0.000u      0.000s      0.001w     15 calls
JK: D                               :      0.000u      0.000s      0.000w     15 calls
JK: USO2AO                          :      0.000u      0.000s      0.000w     15 calls
JK: JK                              :      0.000u      0.000s      0.001w     15 calls
PK computes JK                      :      0.000u      0.000s      0.001w     15 calls
JK: AO2USO                          :      0.000u      0.000s      0.000w     15 calls
HF: Form F                          :      0.000u      0.000s      0.000w     15 calls
HF: Form D                          :      0.000u      0.000s      0.000w     15 calls
HF: DIIS                            :      1.450u      0.050s      0.118w     14 calls
HF: Form C                          :      0.000u      0.000s      0.003w     14 calls

--------------------------------------------------------------------------------------
Total PK formation time             :      0.033u      0.033s      0.036w      1 calls
| Libint2ERI::Libint2ERI            :      0.000u      0.033s      0.027w      2 calls
HF: Form core H                     :      0.000u      0.000s      0.004w      1 calls
HF: Form S/X                        :      0.000u      0.000s      0.000w      1 calls
HF: Guess                           :      0.017u      0.017s      0.028w      1 calls
| SAD Guess                         :      0.017u      0.017s      0.027w      1 calls
HF: Form G                          :      0.000u      0.000s      0.001w     15 calls
| JK: D                             :      0.000u      0.000s      0.000w     15 calls
| JK: USO2AO                        :      0.000u      0.000s      0.000w     15 calls
| JK: JK                            :      0.000u      0.000s      0.001w     15 calls
| | PK computes JK                  :      0.000u      0.000s      0.001w     15 calls
| JK: AO2USO                        :      0.000u      0.000s      0.000w     15 calls
HF: Form F                          :      0.000u      0.000s      0.000w     15 calls
HF: Form D                          :      0.000u      0.000s      0.000w     15 calls
HF: DIIS                            :      1.450u      0.050s      0.118w     14 calls
HF: Form C                          :      0.000u      0.000s      0.003w     14 calls

**************************************************************************************

Host: 492440ef7fa4

Timers On : Mon Nov  4 17:51:23 2024
Timers Off: Mon Nov  4 17:51:23 2024

Wall Time:        0.78 seconds

                                                       Time (seconds)
Module                                       User      System        Wall        Calls
Total PK formation time             :      0.033u      0.050s      0.047w      1 calls
Libint2ERI::Libint2ERI              :      0.017u      0.050s      0.036w      2 calls
HF: Form core H                     :      0.000u      0.000s      0.003w      1 calls
HF: Form S/X                        :      0.000u      0.000s      0.000w      1 calls
HF: Guess                           :      0.017u      0.000s      0.018w      1 calls
SAD Guess                           :      0.017u      0.000s      0.018w      1 calls
HF: Form G                          :      0.000u      0.000s      0.001w     15 calls
JK: D                               :      0.000u      0.000s      0.000w     15 calls
JK: USO2AO                          :      0.000u      0.000s      0.000w     15 calls
JK: JK                              :      0.000u      0.000s      0.001w     15 calls
PK computes JK                      :      0.000u      0.000s      0.001w     15 calls
JK: AO2USO                          :      0.000u      0.000s      0.000w     15 calls
HF: Form F                          :      0.000u      0.000s      0.000w     15 calls
HF: Form D                          :      0.000u      0.000s      0.000w     15 calls
HF: DIIS                            :      1.450u      0.100s      0.160w     14 calls
HF: Form C                          :      0.000u      0.000s      0.003w     14 calls

--------------------------------------------------------------------------------------
Total PK formation time             :      0.033u      0.050s      0.047w      1 calls
| Libint2ERI::Libint2ERI            :      0.017u      0.050s      0.036w      2 calls
HF: Form core H                     :      0.000u      0.000s      0.003w      1 calls
HF: Form S/X                        :      0.000u      0.000s      0.000w      1 calls
HF: Guess                           :      0.017u      0.000s      0.018w      1 calls
| SAD Guess                         :      0.017u      0.000s      0.018w      1 calls
HF: Form G                          :      0.000u      0.000s      0.001w     15 calls
| JK: D                             :      0.000u      0.000s      0.000w     15 calls
| JK: USO2AO                        :      0.000u      0.000s      0.000w     15 calls
| JK: JK                            :      0.000u      0.000s      0.001w     15 calls
| | PK computes JK                  :      0.000u      0.000s      0.001w     15 calls
| JK: AO2USO                        :      0.000u      0.000s      0.000w     15 calls
HF: Form F                          :      0.000u      0.000s      0.000w     15 calls
HF: Form D                          :      0.000u      0.000s      0.000w     15 calls
HF: DIIS                            :      1.450u      0.100s      0.160w     14 calls
HF: Form C                          :      0.000u      0.000s      0.003w     14 calls

**************************************************************************************

Host: 492440ef7fa4

Timers On : Mon Nov  4 17:54:19 2024
Timers Off: Mon Nov  4 17:54:20 2024

Wall Time:        0.71 seconds

                                                       Time (seconds)
Module                                       User      System        Wall        Calls
Total PK formation time             :      0.017u      0.033s      0.035w      1 calls
Libint2ERI::Libint2ERI              :      0.000u      0.033s      0.025w      2 calls
HF: Form core H                     :      0.000u      0.000s      0.009w      1 calls
HF: Form S/X                        :      0.000u      0.000s      0.001w      1 calls
HF: Guess                           :      0.017u      0.000s      0.021w      1 calls
SAD Guess                           :      0.017u      0.000s      0.020w      1 calls
HF: Form G                          :      0.000u      0.000s      0.001w     15 calls
JK: D                               :      0.000u      0.000s      0.000w     15 calls
JK: USO2AO                          :      0.000u      0.000s      0.000w     15 calls
JK: JK                              :      0.000u      0.000s      0.001w     15 calls
PK computes JK                      :      0.000u      0.000s      0.001w     15 calls
JK: AO2USO                          :      0.000u      0.000s      0.000w     15 calls
HF: Form F                          :      0.000u      0.000s      0.000w     15 calls
HF: Form D                          :      0.000u      0.000s      0.000w     15 calls
HF: DIIS                            :      1.483u      0.033s      0.123w     14 calls
HF: Form C                          :      0.017u      0.000s      0.003w     14 calls

--------------------------------------------------------------------------------------
Total PK formation time             :      0.017u      0.033s      0.035w      1 calls
| Libint2ERI::Libint2ERI            :      0.000u      0.033s      0.025w      2 calls
HF: Form core H                     :      0.000u      0.000s      0.009w      1 calls
HF: Form S/X                        :      0.000u      0.000s      0.001w      1 calls
HF: Guess                           :      0.017u      0.000s      0.021w      1 calls
| SAD Guess                         :      0.017u      0.000s      0.020w      1 calls
HF: Form G                          :      0.000u      0.000s      0.001w     15 calls
| JK: D                             :      0.000u      0.000s      0.000w     15 calls
| JK: USO2AO                        :      0.000u      0.000s      0.000w     15 calls
| JK: JK                            :      0.000u      0.000s      0.001w     15 calls
| | PK computes JK                  :      0.000u      0.000s      0.001w     15 calls
| JK: AO2USO                        :      0.000u      0.000s      0.000w     15 calls
HF: Form F                          :      0.000u      0.000s      0.000w     15 calls
HF: Form D                          :      0.000u      0.000s      0.000w     15 calls
HF: DIIS                            :      1.483u      0.033s      0.123w     14 calls
HF: Form C                          :      0.017u      0.000s      0.003w     14 calls

**************************************************************************************

Host: 3328245e68b5

Timers On : Mon Nov  4 17:54:42 2024
Timers Off: Mon Nov  4 17:54:42 2024

Wall Time:        0.63 seconds

                                                       Time (seconds)
Module                                       User      System        Wall        Calls
Total PK formation time             :      0.017u      0.017s      0.023w      1 calls
Libint2ERI::Libint2ERI              :      0.017u      0.017s      0.013w      2 calls
HF: Form core H                     :      0.000u      0.000s      0.003w      1 calls
HF: Form S/X                        :      0.000u      0.000s      0.000w      1 calls
HF: Guess                           :      0.017u      0.000s      0.016w      1 calls
SAD Guess                           :      0.017u      0.000s      0.016w      1 calls
HF: Form G                          :      0.000u      0.000s      0.001w     15 calls
JK: D                               :      0.000u      0.000s      0.000w     15 calls
JK: USO2AO                          :      0.000u      0.000s      0.000w     15 calls
JK: JK                              :      0.000u      0.000s      0.001w     15 calls
PK computes JK                      :      0.000u      0.000s      0.001w     15 calls
JK: AO2USO                          :      0.000u      0.000s      0.000w     15 calls
HF: Form F                          :      0.000u      0.000s      0.000w     15 calls
HF: Form D                          :      0.000u      0.000s      0.000w     15 calls
HF: DIIS                            :      1.450u      0.083s      0.136w     14 calls
HF: Form C                          :      0.000u      0.000s      0.003w     14 calls

--------------------------------------------------------------------------------------
Total PK formation time             :      0.017u      0.017s      0.023w      1 calls
| Libint2ERI::Libint2ERI            :      0.017u      0.017s      0.013w      2 calls
HF: Form core H                     :      0.000u      0.000s      0.003w      1 calls
HF: Form S/X                        :      0.000u      0.000s      0.000w      1 calls
HF: Guess                           :      0.017u      0.000s      0.016w      1 calls
| SAD Guess                         :      0.017u      0.000s      0.016w      1 calls
HF: Form G                          :      0.000u      0.000s      0.001w     15 calls
| JK: D                             :      0.000u      0.000s      0.000w     15 calls
| JK: USO2AO                        :      0.000u      0.000s      0.000w     15 calls
| JK: JK                            :      0.000u      0.000s      0.001w     15 calls
| | PK computes JK                  :      0.000u      0.000s      0.001w     15 calls
| JK: AO2USO                        :      0.000u      0.000s      0.000w     15 calls
HF: Form F                          :      0.000u      0.000s      0.000w     15 calls
HF: Form D                          :      0.000u      0.000s      0.000w     15 calls
HF: DIIS                            :      1.450u      0.083s      0.136w     14 calls
HF: Form C                          :      0.000u      0.000s      0.003w     14 calls

**************************************************************************************

Host: 3328245e68b5

Timers On : Mon Nov  4 17:59:10 2024
Timers Off: Mon Nov  4 17:59:11 2024

Wall Time:        0.79 seconds

                                                       Time (seconds)
Module                                       User      System        Wall        Calls
Total PK formation time             :      0.017u      0.033s      0.036w      1 calls
Libint2ERI::Libint2ERI              :      0.017u      0.050s      0.038w      3 calls
HF: Form core H                     :      0.000u      0.000s      0.003w      1 calls
HF: Form S/X                        :      0.000u      0.000s      0.000w      1 calls
HF: Guess                           :      0.017u      0.017s      0.030w      1 calls
SAD Guess                           :      0.017u      0.017s      0.029w      1 calls
HF: Form G                          :      0.017u      0.000s      0.001w     15 calls
JK: D                               :      0.000u      0.000s      0.000w     15 calls
JK: USO2AO                          :      0.000u      0.000s      0.000w     15 calls
JK: JK                              :      0.017u      0.000s      0.001w     15 calls
PK computes JK                      :      0.000u      0.000s      0.001w     15 calls
JK: AO2USO                          :      0.000u      0.000s      0.000w     15 calls
HF: Form F                          :      0.000u      0.000s      0.000w     15 calls
HF: Form D                          :      0.000u      0.000s      0.000w     15 calls
HF: DIIS                            :      1.417u      0.050s      0.118w     14 calls
HF: Form C                          :      0.017u      0.000s      0.003w     14 calls

--------------------------------------------------------------------------------------
Total PK formation time             :      0.017u      0.033s      0.036w      1 calls
| Libint2ERI::Libint2ERI            :      0.000u      0.033s      0.026w      2 calls
HF: Form core H                     :      0.000u      0.000s      0.003w      1 calls
HF: Form S/X                        :      0.000u      0.000s      0.000w      1 calls
HF: Guess                           :      0.017u      0.017s      0.030w      1 calls
| SAD Guess                         :      0.017u      0.017s      0.029w      1 calls
HF: Form G                          :      0.017u      0.000s      0.001w     15 calls
| JK: D                             :      0.000u      0.000s      0.000w     15 calls
| JK: USO2AO                        :      0.000u      0.000s      0.000w     15 calls
| JK: JK                            :      0.017u      0.000s      0.001w     15 calls
| | PK computes JK                  :      0.000u      0.000s      0.001w     15 calls
| JK: AO2USO                        :      0.000u      0.000s      0.000w     15 calls
HF: Form F                          :      0.000u      0.000s      0.000w     15 calls
HF: Form D                          :      0.000u      0.000s      0.000w     15 calls
HF: DIIS                            :      1.417u      0.050s      0.118w     14 calls
HF: Form C                          :      0.017u      0.000s      0.003w     14 calls
Libint2ERI::Libint2ERI              :      0.017u      0.017s      0.011w      1 calls

**************************************************************************************

Host: 3328245e68b5

Timers On : Mon Nov  4 18:05:04 2024
Timers Off: Mon Nov  4 18:05:05 2024

Wall Time:        0.86 seconds

                                                       Time (seconds)
Module                                       User      System        Wall        Calls
Total PK formation time             :      0.033u      0.050s      0.062w      1 calls
Libint2ERI::Libint2ERI              :      0.017u      0.067s      0.059w      3 calls
HF: Form core H                     :      0.000u      0.000s      0.004w      1 calls
HF: Form S/X                        :      0.000u      0.000s      0.000w      1 calls
HF: Guess                           :      0.017u      0.017s      0.020w      1 calls
SAD Guess                           :      0.017u      0.017s      0.020w      1 calls
HF: Form G                          :      0.000u      0.000s      0.001w     15 calls
JK: D                               :      0.000u      0.000s      0.000w     15 calls
JK: USO2AO                          :      0.000u      0.000s      0.000w     15 calls
JK: JK                              :      0.000u      0.000s      0.001w     15 calls
PK computes JK                      :      0.000u      0.000s      0.001w     15 calls
JK: AO2USO                          :      0.000u      0.000s      0.000w     15 calls
HF: Form F                          :      0.000u      0.000s      0.000w     15 calls
HF: Form D                          :      0.000u      0.000s      0.000w     15 calls
HF: DIIS                            :      1.500u      0.067s      0.155w     14 calls
HF: Form C                          :      0.000u      0.000s      0.003w     14 calls

--------------------------------------------------------------------------------------
Total PK formation time             :      0.033u      0.050s      0.062w      1 calls
| Libint2ERI::Libint2ERI            :      0.017u      0.050s      0.052w      2 calls
HF: Form core H                     :      0.000u      0.000s      0.004w      1 calls
HF: Form S/X                        :      0.000u      0.000s      0.000w      1 calls
HF: Guess                           :      0.017u      0.017s      0.020w      1 calls
| SAD Guess                         :      0.017u      0.017s      0.020w      1 calls
HF: Form G                          :      0.000u      0.000s      0.001w     15 calls
| JK: D                             :      0.000u      0.000s      0.000w     15 calls
| JK: USO2AO                        :      0.000u      0.000s      0.000w     15 calls
| JK: JK                            :      0.000u      0.000s      0.001w     15 calls
| | PK computes JK                  :      0.000u      0.000s      0.001w     15 calls
| JK: AO2USO                        :      0.000u      0.000s      0.000w     15 calls
HF: Form F                          :      0.000u      0.000s      0.000w     15 calls
HF: Form D                          :      0.000u      0.000s      0.000w     15 calls
HF: DIIS                            :      1.500u      0.067s      0.155w     14 calls
HF: Form C                          :      0.000u      0.000s      0.003w     14 calls
Libint2ERI::Libint2ERI              :      0.000u      0.017s      0.008w      1 calls

**************************************************************************************

Host: 3328245e68b5

Timers On : Mon Nov  4 18:10:08 2024
Timers Off: Mon Nov  4 18:10:09 2024

Wall Time:        0.78 seconds

                                                       Time (seconds)
Module                                       User      System        Wall        Calls
Total PK formation time             :      0.017u      0.033s      0.035w      1 calls
Libint2ERI::Libint2ERI              :      0.000u      0.033s      0.031w      3 calls
HF: Form core H                     :      0.000u      0.000s      0.003w      1 calls
HF: Form S/X                        :      0.000u      0.000s      0.001w      1 calls
HF: Guess                           :      0.017u      0.000s      0.019w      1 calls
SAD Guess                           :      0.017u      0.000s      0.018w      1 calls
HF: Form G                          :      0.000u      0.000s      0.001w     15 calls
JK: D                               :      0.000u      0.000s      0.000w     15 calls
JK: USO2AO                          :      0.000u      0.000s      0.000w     15 calls
JK: JK                              :      0.000u      0.000s      0.001w     15 calls
PK computes JK                      :      0.000u      0.000s      0.001w     15 calls
JK: AO2USO                          :      0.000u      0.000s      0.000w     15 calls
HF: Form F                          :      0.000u      0.000s      0.000w     15 calls
HF: Form D                          :      0.000u      0.000s      0.000w     15 calls
HF: DIIS                            :      1.433u      0.050s      0.122w     14 calls
HF: Form C                          :      0.017u      0.000s      0.003w     14 calls

--------------------------------------------------------------------------------------
Total PK formation time             :      0.017u      0.033s      0.035w      1 calls
| Libint2ERI::Libint2ERI            :      0.000u      0.033s      0.026w      2 calls
HF: Form core H                     :      0.000u      0.000s      0.003w      1 calls
HF: Form S/X                        :      0.000u      0.000s      0.001w      1 calls
HF: Guess                           :      0.017u      0.000s      0.019w      1 calls
| SAD Guess                         :      0.017u      0.000s      0.018w      1 calls
HF: Form G                          :      0.000u      0.000s      0.001w     15 calls
| JK: D                             :      0.000u      0.000s      0.000w     15 calls
| JK: USO2AO                        :      0.000u      0.000s      0.000w     15 calls
| JK: JK                            :      0.000u      0.000s      0.001w     15 calls
| | PK computes JK                  :      0.000u      0.000s      0.001w     15 calls
| JK: AO2USO                        :      0.000u      0.000s      0.000w     15 calls
HF: Form F                          :      0.000u      0.000s      0.000w     15 calls
HF: Form D                          :      0.000u      0.000s      0.000w     15 calls
HF: DIIS                            :      1.433u      0.050s      0.122w     14 calls
HF: Form C                          :      0.017u      0.000s      0.003w     14 calls
Libint2ERI::Libint2ERI              :      0.000u      0.000s      0.006w      1 calls

**************************************************************************************

Host: 3328245e68b5

Timers On : Mon Nov  4 18:12:31 2024
Timers Off: Mon Nov  4 18:12:32 2024

Wall Time:        0.75 seconds

                                                       Time (seconds)
Module                                       User      System        Wall        Calls
Total PK formation time             :      0.017u      0.033s      0.029w      1 calls
Libint2ERI::Libint2ERI              :      0.000u      0.033s      0.025w      3 calls
HF: Form core H                     :      0.000u      0.000s      0.003w      1 calls
HF: Form S/X                        :      0.000u      0.000s      0.000w      1 calls
HF: Guess                           :      0.017u      0.000s      0.018w      1 calls
[...]

Host: e74b437a26bc

Timers On : Sat Nov  9 01:45:46 2024
Timers Off: Sat Nov  9 01:45:47 2024

Wall Time:        0.92 seconds

                                                       Time (seconds)
Module                                       User      System        Wall        Calls
Total PK formation time             :      0.033u      0.017s      0.040w      2 calls
Libint2ERI::Libint2ERI              :      0.017u      0.017s      0.024w      5 calls
HF: Form core H                     :      0.000u      0.000s      0.004w      2 calls
HF: Form S/X                        :      0.000u      0.000s      0.000w      2 calls
HF: Guess                           :      0.050u      0.000s      0.029w      2 calls
SAD Guess                           :      0.050u      0.000s      0.028w      2 calls
HF: Form G                          :      0.017u      0.000s      0.003w     30 calls
JK: D                               :      0.000u      0.000s      0.000w     30 calls
JK: USO2AO                          :      0.000u      0.000s      0.000w     30 calls
JK: JK                              :      0.017u      0.000s      0.002w     30 calls
PK computes JK                      :      0.017u      0.000s      0.002w     30 calls
JK: AO2USO                          :      0.000u      0.000s      0.001w     30 calls
HF: Form F                          :      0.000u      0.000s      0.000w     30 calls
HF: Form D                          :      0.000u      0.000s      0.000w     30 calls
HF: DIIS                            :      1.483u      0.017s      0.136w     28 calls
HF: Form C                          :      0.000u      0.000s      0.005w     28 calls

--------------------------------------------------------------------------------------
Total PK formation time             :      0.033u      0.017s      0.040w      2 calls
| Libint2ERI::Libint2ERI            :      0.017u      0.017s      0.021w      4 calls
HF: Form core H                     :      0.000u      0.000s      0.004w      2 calls
HF: Form S/X                        :      0.000u      0.000s      0.000w      2 calls
HF: Guess                           :      0.050u      0.000s      0.029w      2 calls
| SAD Guess                         :      0.050u      0.000s      0.028w      2 calls
HF: Form G                          :      0.017u      0.000s      0.003w     30 calls
| JK: D                             :      0.000u      0.000s      0.000w     30 calls
| JK: USO2AO                        :      0.000u      0.000s      0.000w     30 calls
| JK: JK                            :      0.017u      0.000s      0.002w     30 calls
| | PK computes JK                  :      0.017u      0.000s      0.002w     30 calls
| JK: AO2USO                        :      0.000u      0.000s      0.001w     30 calls
HF: Form F                          :      0.000u      0.000s      0.000w     30 calls
HF: Form D                          :      0.000u      0.000s      0.000w     30 calls
HF: DIIS                            :      1.483u      0.017s      0.136w     28 calls
HF: Form C                          :      0.000u      0.000s      0.005w     28 calls
Libint2ERI::Libint2ERI              :      0.000u      0.000s      0.004w      1 calls

**************************************************************************************

Host: e74b437a26bc

Timers On : Sat Nov  9 01:46:25 2024
Timers Off: Sat Nov  9 01:46:26 2024

Wall Time:        0.74 seconds

                                                       Time (seconds)
Module                                       User      System        Wall        Calls
Total PK formation time             :      0.017u      0.017s      0.024w      1 calls
Libint2ERI::Libint2ERI              :      0.000u      0.033s      0.017w      3 calls
HF: Form core H                     :      0.000u      0.000s      0.002w      1 calls
HF: Form S/X                        :      0.000u      0.000s      0.000w      1 calls
HF: Guess                           :      0.033u      0.000s      0.016w      1 calls
SAD Guess                           :      0.033u      0.000s      0.016w      1 calls
HF: Form G                          :      0.000u      0.000s      0.001w     15 calls
JK: D                               :      0.000u      0.000s      0.000w     15 calls
JK: USO2AO                          :      0.000u      0.000s      0.000w     15 calls
JK: JK                              :      0.000u      0.000s      0.001w     15 calls
PK computes JK                      :      0.000u      0.000s      0.001w     15 calls
JK: AO2USO                          :      0.000u      0.000s      0.000w     15 calls
HF: Form F                          :      0.000u      0.000s      0.000w     15 calls
HF: Form D                          :      0.000u      0.000s      0.000w     15 calls
HF: DIIS                            :      1.283u      0.000s      0.096w     14 calls
HF: Form C                          :      0.067u      0.000s      0.004w     14 calls

--------------------------------------------------------------------------------------
Total PK formation time             :      0.017u      0.017s      0.024w      1 calls
| Libint2ERI::Libint2ERI            :      0.000u      0.017s      0.014w      2 calls
HF: Form core H                     :      0.000u      0.000s      0.002w      1 calls
HF: Form S/X                        :      0.000u      0.000s      0.000w      1 calls
HF: Guess                           :      0.033u      0.000s      0.016w      1 calls
| SAD Guess                         :      0.033u      0.000s      0.016w      1 calls
HF: Form G                          :      0.000u      0.000s      0.001w     15 calls
| JK: D                             :      0.000u      0.000s      0.000w     15 calls
| JK: USO2AO                        :      0.000u      0.000s      0.000w     15 calls
| JK: JK                            :      0.000u      0.000s      0.001w     15 calls
| | PK computes JK                  :      0.000u      0.000s      0.001w     15 calls
| JK: AO2USO                        :      0.000u      0.000s      0.000w     15 calls
HF: Form F                          :      0.000u      0.000s      0.000w     15 calls
HF: Form D                          :      0.000u      0.000s      0.000w     15 calls
HF: DIIS                            :      1.283u      0.000s      0.096w     14 calls
HF: Form C                          :      0.067u      0.000s      0.004w     14 calls
Libint2ERI::Libint2ERI              :      0.000u      0.017s      0.002w      1 calls

**************************************************************************************

Host: e74b437a26bc

Timers On : Sat Nov  9 01:46:54 2024
Timers Off: Sat Nov  9 01:46:55 2024

Wall Time:        0.74 seconds

                                                       Time (seconds)
Module                                       User      System        Wall        Calls
Total PK formation time             :      0.033u      0.000s      0.017w      1 calls
Libint2ERI::Libint2ERI              :      0.017u      0.000s      0.010w      3 calls
HF: Form core H                     :      0.000u      0.000s      0.002w      1 calls
HF: Form S/X                        :      0.000u      0.000s      0.000w      1 calls
HF: Guess                           :      0.017u      0.000s      0.015w      1 calls
SAD Guess                           :      0.017u      0.000s      0.014w      1 calls
HF: Form G                          :      0.000u      0.000s      0.001w     15 calls
JK: D                               :      0.000u      0.000s      0.000w     15 calls
JK: USO2AO                          :      0.000u      0.000s      0.000w     15 calls
JK: JK                              :      0.000u      0.000s      0.001w     15 calls
PK computes JK                      :      0.000u      0.000s      0.001w     15 calls
JK: AO2USO                          :      0.000u      0.000s      0.000w     15 calls
HF: Form F                          :      0.000u      0.000s      0.000w     15 calls
HF: Form D                          :      0.000u      0.000s      0.000w     15 calls
HF: DIIS                            :      1.467u      0.017s      0.113w     14 calls
HF: Form C                          :      0.000u      0.000s      0.003w     14 calls

--------------------------------------------------------------------------------------
Total PK formation time             :      0.033u      0.000s      0.017w      1 calls
| Libint2ERI::Libint2ERI            :      0.017u      0.000s      0.008w      2 calls
HF: Form core H                     :      0.000u      0.000s      0.002w      1 calls
HF: Form S/X                        :      0.000u      0.000s      0.000w      1 calls
HF: Guess                           :      0.017u      0.000s      0.015w      1 calls
| SAD Guess                         :      0.017u      0.000s      0.014w      1 calls
HF: Form G                          :      0.000u      0.000s      0.001w     15 calls
| JK: D                             :      0.000u      0.000s      0.000w     15 calls
| JK: USO2AO                        :      0.000u      0.000s      0.000w     15 calls
| JK: JK                            :      0.000u      0.000s      0.001w     15 calls
| | PK computes JK                  :      0.000u      0.000s      0.001w     15 calls
| JK: AO2USO                        :      0.000u      0.000s      0.000w     15 calls
HF: Form F                          :      0.000u      0.000s      0.000w     15 calls
HF: Form D                          :      0.000u      0.000s      0.000w     15 calls
HF: DIIS                            :      1.467u      0.017s      0.113w     14 calls
HF: Form C                          :      0.000u      0.000s      0.003w     14 calls
Libint2ERI::Libint2ERI              :      0.000u      0.000s      0.002w      1 calls

**************************************************************************************

Host: e74b437a26bc

Timers On : Sat Nov  9 01:48:42 2024
Timers Off: Sat Nov  9 01:48:43 2024

Wall Time:        0.89 seconds

                                                       Time (seconds)
Module                                       User      System        Wall        Calls
Total PK formation time             :      0.033u      0.000s      0.030w      2 calls
Libint2ERI::Libint2ERI              :      0.000u      0.000s      0.013w      5 calls
HF: Form core H                     :      0.000u      0.000s      0.003w      2 calls
HF: Form S/X                        :      0.000u      0.000s      0.001w      2 calls
HF: Guess                           :      0.050u      0.000s      0.027w      2 calls
SAD Guess                           :      0.033u      0.000s      0.026w      2 calls
HF: Form G                          :      0.017u      0.000s      0.003w     30 calls
JK: D                               :      0.000u      0.000s      0.000w     30 calls
JK: USO2AO                          :      0.000u      0.000s      0.000w     30 calls
JK: JK                              :      0.000u      0.000s      0.002w     30 calls
PK computes JK                      :      0.000u      0.000s      0.002w     30 calls
JK: AO2USO                          :      0.017u      0.000s      0.001w     30 calls
HF: Form F                          :      0.000u      0.000s      0.000w     30 calls
HF: Form D                          :      0.000u      0.000s      0.000w     30 calls
HF: DIIS                            :      1.433u      0.050s      0.123w     28 calls
HF: Form C                          :      0.000u      0.000s      0.005w     28 calls

--------------------------------------------------------------------------------------
Total PK formation time             :      0.033u      0.000s      0.030w      2 calls
| Libint2ERI::Libint2ERI            :      0.000u      0.000s      0.011w      4 calls
HF: Form core H                     :      0.000u      0.000s      0.003w      2 calls
HF: Form S/X                        :      0.000u      0.000s      0.001w      2 calls
HF: Guess                           :      0.050u      0.000s      0.027w      2 calls
| SAD Guess                         :      0.033u      0.000s      0.026w      2 calls
HF: Form G                          :      0.017u      0.000s      0.003w     30 calls
| JK: D                             :      0.000u      0.000s      0.000w     30 calls
| JK: USO2AO                        :      0.000u      0.000s      0.000w     30 calls
| JK: JK                            :      0.000u      0.000s      0.002w     30 calls
| | PK computes JK                  :      0.000u      0.000s      0.002w     30 calls
| JK: AO2USO                        :      0.017u      0.000s      0.001w     30 calls
HF: Form F                          :      0.000u      0.000s      0.000w     30 calls
HF: Form D                          :      0.000u      0.000s      0.000w     30 calls
HF: DIIS                            :      1.433u      0.050s      0.123w     28 calls
HF: Form C                          :      0.000u      0.000s      0.005w     28 calls
Libint2ERI::Libint2ERI              :      0.000u      0.000s      0.002w      1 calls

**************************************************************************************

Host: e74b437a26bc

Timers On : Sat Nov  9 01:49:37 2024
Timers Off: Sat Nov  9 01:49:38 2024

Wall Time:        0.73 seconds

                                                       Time (seconds)
Module                                       User      System        Wall        Calls
Total PK formation time             :      0.033u      0.000s      0.017w      1 calls
Libint2ERI::Libint2ERI              :      0.033u      0.000s      0.010w      3 calls
HF: Form core H                     :      0.000u      0.000s      0.002w      1 calls
HF: Form S/X                        :      0.000u      0.000s      0.000w      1 calls
HF: Guess                           :      0.017u      0.000s      0.015w      1 calls
SAD Guess                           :      0.017u      0.000s      0.014w      1 calls
HF: Form G                          :      0.050u      0.000s      0.002w     15 calls
JK: D                               :      0.000u      0.000s      0.000w     15 calls
JK: USO2AO                          :      0.000u      0.000s      0.000w     15 calls
JK: JK                              :      0.050u      0.000s      0.001w     15 calls
PK computes JK                      :      0.050u      0.000s      0.001w     15 calls
JK: AO2USO                          :      0.000u      0.000s      0.000w     15 calls
HF: Form F                          :      0.017u      0.000s      0.000w     15 calls
HF: Form D                          :      0.000u      0.000s      0.000w     15 calls
HF: DIIS                            :      1.317u      0.017s      0.104w     14 calls
HF: Form C                          :      0.033u      0.000s      0.003w     14 calls

--------------------------------------------------------------------------------------
Total PK formation time             :      0.033u      0.000s      0.017w      1 calls
| Libint2ERI::Libint2ERI            :      0.017u      0.000s      0.008w      2 calls
HF: Form core H                     :      0.000u      0.000s      0.002w      1 calls
HF: Form S/X                        :      0.000u      0.000s      0.000w      1 calls
HF: Guess                           :      0.017u      0.000s      0.015w      1 calls
| SAD Guess                         :      0.017u      0.000s      0.014w      1 calls
HF: Form G                          :      0.050u      0.000s      0.002w     15 calls
| JK: D                             :      0.000u      0.000s      0.000w     15 calls
| JK: USO2AO                        :      0.000u      0.000s      0.000w     15 calls
| JK: JK                            :      0.050u      0.000s      0.001w     15 calls
| | PK computes JK                  :      0.050u      0.000s      0.001w     15 calls
| JK: AO2USO                        :      0.000u      0.000s      0.000w     15 calls
HF: Form F                          :      0.017u      0.000s      0.000w     15 calls
HF: Form D                          :      0.000u      0.000s      0.000w     15 calls
HF: DIIS                            :      1.317u      0.017s      0.104w     14 calls
HF: Form C                          :      0.033u      0.000s      0.003w     14 calls
Libint2ERI::Libint2ERI              :      0.017u      0.000s      0.002w      1 calls

**************************************************************************************

Host: e74b437a26bc

Timers On : Sat Nov  9 01:57:26 2024
Timers Off: Sat Nov  9 01:57:27 2024

Wall Time:        0.82 seconds

                                                       Time (seconds)
Module                                       User      System        Wall        Calls
Total PK formation time             :      0.017u      0.033s      0.036w      1 calls
Libint2ERI::Libint2ERI              :      0.000u      0.050s      0.032w      3 calls
HF: Form core H                     :      0.000u      0.000s      0.002w      1 calls
HF: Form S/X                        :      0.000u      0.000s      0.000w      1 calls
HF: Guess                           :      0.033u      0.000s      0.017w      1 calls
SAD Guess                           :      0.033u      0.000s      0.016w      1 calls
HF: Form G                          :      0.000u      0.000s      0.001w     15 calls
JK: D                               :      0.000u      0.000s      0.000w     15 calls
JK: USO2AO                          :      0.000u      0.000s      0.000w     15 calls
JK: JK                              :      0.000u      0.000s      0.001w     15 calls
PK computes JK                      :      0.000u      0.000s      0.001w     15 calls
JK: AO2USO                          :      0.000u      0.000s      0.000w     15 calls
HF: Form F                          :      0.000u      0.000s      0.000w     15 calls
HF: Form D                          :      0.000u      0.000s      0.000w     15 calls
HF: DIIS                            :      1.383u      0.033s      0.107w     14 calls
HF: Form C                          :      0.033u      0.000s      0.003w     14 calls

--------------------------------------------------------------------------------------
Total PK formation time             :      0.017u      0.033s      0.036w      1 calls
| Libint2ERI::Libint2ERI            :      0.000u      0.033s      0.025w      2 calls
HF: Form core H                     :      0.000u      0.000s      0.002w      1 calls
HF: Form S/X                        :      0.000u      0.000s      0.000w      1 calls
HF: Guess                           :      0.033u      0.000s      0.017w      1 calls
| SAD Guess                         :      0.033u      0.000s      0.016w      1 calls
HF: Form G                          :      0.000u      0.000s      0.001w     15 calls
| JK: D                             :      0.000u      0.000s      0.000w     15 calls
| JK: USO2AO                        :      0.000u      0.000s      0.000w     15 calls
| JK: JK                            :      0.000u      0.000s      0.001w     15 calls
| | PK computes JK                  :      0.000u      0.000s      0.001w     15 calls
| JK: AO2USO                        :      0.000u      0.000s      0.000w     15 calls
HF: Form F                          :      0.000u      0.000s      0.000w     15 calls
HF: Form D                          :      0.000u      0.000s      0.000w     15 calls
HF: DIIS                            :      1.383u      0.033s      0.107w     14 calls
HF: Form C                          :      0.033u      0.000s      0.003w     14 calls
Libint2ERI::Libint2ERI              :      0.000u      0.017s      0.007w      1 calls

**************************************************************************************
